# vtk DataFile Version 1.0
vtk output
ASCII
DATASET POLYDATA
POINTS 8281 float
-0.995034 -0.002064 -0.904500 -0.908557 0.022468 -0.916493 
-0.829034 0.046704 -0.927385 -0.756140 0.070660 -0.937228 
-0.689552 0.094356 -0.946073 -0.628943 0.117807 -0.953972 
-0.573990 0.141032 -0.960979 -0.524368 0.164048 -0.967145 
-0.479752 0.186872 -0.972522 -0.439817 0.209522 -0.977163 
-0.404238 0.232016 -0.981120 -0.372691 0.254370 -0.984444 
-0.344851 0.276603 -0.987189 -0.320393 0.298732 -0.989406 
-0.298992 0.320774 -0.991147 -0.280325 0.342747 -0.992465 
-0.264065 0.364668 -0.993411 -0.249888 0.386555 -0.994039 
-0.237470 0.408425 -0.994400 -0.226486 0.430296 -0.994545 
-0.216611 0.452185 -0.994529 -0.207520 0.474110 -0.994402 
-0.198888 0.496088 -0.994217 -0.190398 0.518136 -0.994024 
-0.181868 0.540235 -0.993847 -0.173261 0.562336 -0.993677 
-0.164540 0.584388 -0.993506 -0.155672 0.606337 -0.993327 
-0.146624 0.628134 -0.993131 -0.137360 0.649725 -0.992909 
-0.127847 0.671060 -0.992654 -0.118051 0.692086 -0.992357 
-0.107938 0.712753 -0.992009 -0.097473 0.733007 -0.991604 
-0.086623 0.752798 -0.991132 -0.075353 0.772073 -0.990585 
-0.063630 0.790782 -0.989955 -0.051418 0.808872 -0.989234 
-0.038685 0.826292 -0.988413 -0.025396 0.842989 -0.987484 
-0.011517 0.858913 -0.986439 0.002986 0.874012 -0.985270 
0.018147 0.888233 -0.983968 0.034001 0.901525 -0.982526 
0.050581 0.913837 -0.980934 0.067921 0.925116 -0.979185 
0.086040 0.935316 -0.977276 0.104890 0.944405 -0.975227 
0.124407 0.952358 -0.973065 0.144529 0.959149 -0.970815 
0.165192 0.964752 -0.968503 0.186333 0.969140 -0.966156 
0.207887 0.972288 -0.963798 0.229793 0.974169 -0.961457 
0.251986 0.974757 -0.959159 0.274403 0.974026 -0.956928 
0.296981 0.971951 -0.954792 0.319656 0.968504 -0.952776 
0.342365 0.963660 -0.950905 0.365044 0.957394 -0.949207 
0.387631 0.949677 -0.947708 0.410061 0.940486 -0.946432 
0.432272 0.929793 -0.945406 0.454200 0.917572 -0.944656 
0.475781 0.903798 -0.944208 0.496952 0.888444 -0.944089 
0.517650 0.871484 -0.944323 0.537812 0.852893 -0.944937 
0.557377 0.832645 -0.945956 0.576362 0.810768 -0.947369 
0.594860 0.787338 -0.949133 0.612967 0.762434 -0.951202 
0.630780 0.736135 -0.953531 0.648396 0.708518 -0.956074 
0.665910 0.679664 -0.958786 0.683419 0.649651 -0.961622 
0.701020 0.618557 -0.964535 0.718809 0.586462 -0.967481 
0.736883 0.553444 -0.970414 0.755338 0.519582 -0.973288 
0.774269 0.484954 -0.976058 0.793775 0.449640 -0.978678 
0.813951 0.413718 -0.981104 0.834894 0.377266 -0.983290 
0.856700 0.340365 -0.985189 0.879465 0.303092 -0.986757 
0.903286 0.265526 -0.987948 0.928260 0.227745 -0.988717 
0.954482 0.189830 -0.989019 0.982050 0.151858 -0.988807 
1.011060 0.113908 -0.988036 -0.996790 0.011285 -0.865722 
-0.909419 0.033125 -0.876055 -0.829125 0.054881 -0.885360 
-0.755575 0.076563 -0.893688 -0.688440 0.098177 -0.901091 
-0.627385 0.119732 -0.907617 -0.572081 0.141233 -0.913319 
-0.522195 0.162689 -0.918246 -0.477396 0.184107 -0.922450 
-0.437351 0.205494 -0.925980 -0.401729 0.226858 -0.928888 
-0.370200 0.248206 -0.931224 -0.342429 0.269546 -0.933039 
-0.318087 0.290885 -0.934383 -0.296842 0.312230 -0.935308 
-0.278361 0.333590 -0.935863 -0.262313 0.354970 -0.936099 
-0.248366 0.376379 -0.936067 -0.236189 0.397824 -0.935818 
-0.225451 0.419312 -0.935401 -0.215818 0.440852 -0.934869 
-0.206960 0.462449 -0.934271 -0.198545 0.484112 -0.933658 
-0.190247 0.505847 -0.933080 -0.181885 0.527633 -0.932555 
-0.173419 0.549420 -0.932076 -0.164816 0.571158 -0.931632 
-0.156045 0.592798 -0.931211 -0.147073 0.614290 -0.930804 
-0.137866 0.635582 -0.930399 -0.128392 0.656626 -0.929987 
-0.118619 0.677371 -0.929556 -0.108514 0.697767 -0.929097 
-0.098044 0.717764 -0.928597 -0.087177 0.737312 -0.928048 
-0.075880 0.756361 -0.927438 -0.064120 0.774860 -0.926756 
-0.051865 0.792760 -0.925993 -0.039082 0.810011 -0.925137 
-0.025739 0.826562 -0.924178 -0.011802 0.842363 -0.923105 
0.002761 0.857365 -0.921908 0.017982 0.871517 -0.920576 
0.033894 0.884769 -0.919099 0.050530 0.897072 -0.917466 
0.067922 0.908374 -0.915666 0.086088 0.918630 -0.913696 
0.104979 0.927807 -0.911575 0.124534 0.935877 -0.909332 
0.144689 0.942810 -0.906993 0.165382 0.948579 -0.904586 
0.186549 0.953155 -0.902138 0.208127 0.956508 -0.899676 
0.230055 0.958611 -0.897227 0.252268 0.959434 -0.894819 
0.274704 0.958950 -0.892478 0.297300 0.957128 -0.890233 
0.319993 0.953942 -0.888109 0.342720 0.949361 -0.886135 
0.365419 0.943358 -0.884337 0.388025 0.935903 -0.882743 
0.410478 0.926969 -0.881380 0.432713 0.916526 -0.880276 
0.454667 0.904545 -0.879456 0.476278 0.890999 -0.878950 
0.497483 0.875857 -0.878783 0.518219 0.859093 -0.878983 
0.538423 0.840677 -0.879577 0.558035 0.820582 -0.880591 
0.577071 0.798842 -0.882016 0.595622 0.775548 -0.883806 
0.613782 0.750792 -0.885915 0.631645 0.724668 -0.888298 
0.649304 0.697270 -0.890908 0.666855 0.668691 -0.893698 
0.684390 0.639024 -0.896623 0.702004 0.608364 -0.899636 
0.719792 0.576803 -0.902691 0.737847 0.544435 -0.905742 
0.756263 0.511353 -0.908742 0.775134 0.477652 -0.911645 
0.794554 0.443424 -0.914405 0.814618 0.408762 -0.916976 
0.835420 0.373761 -0.919311 0.857053 0.338514 -0.921365 
0.879611 0.303114 -0.923090 0.903189 0.267655 -0.924442 
0.927881 0.232230 -0.925372 0.953780 0.196932 -0.925836 
0.980981 0.161856 -0.925787 1.009578 0.127094 -0.925179 
-0.998174 0.024733 -0.829152 -0.910056 0.043999 -0.837976 
-0.829118 0.063386 -0.845844 -0.755022 0.082891 -0.852805 
-0.687431 0.102513 -0.858907 -0.626006 0.122250 -0.864200 
-0.570411 0.142098 -0.868732 -0.520307 0.162056 -0.872552 
-0.475358 0.182122 -0.875710 -0.435225 0.202293 -0.878253 
-0.399572 0.222567 -0.880231 -0.368061 0.242941 -0.881693 
-0.340353 0.263414 -0.882688 -0.316113 0.283983 -0.883264 
-0.295001 0.304646 -0.883470 -0.276682 0.325400 -0.883356 
-0.260816 0.346244 -0.882969 -0.247067 0.367175 -0.882360 
-0.235097 0.388190 -0.881576 -0.224568 0.409288 -0.880668 
-0.215143 0.430466 -0.879682 -0.206485 0.451721 -0.878670 
-0.198256 0.473053 -0.877678 -0.190125 0.494457 -0.876756 
-0.181907 0.515907 -0.875920 -0.173564 0.537358 -0.875161 
-0.165066 0.558760 -0.874465 -0.156380 0.580064 -0.873821 
-0.147475 0.601223 -0.873215 -0.138320 0.622189 -0.872635 
-0.128883 0.642912 -0.872070 -0.119133 0.663344 -0.871505 
-0.109038 0.683437 -0.870930 -0.098567 0.703143 -0.870331 
-0.087689 0.722413 -0.869697 -0.076371 0.741199 -0.869014 
-0.064583 0.759452 -0.868271 -0.052294 0.777124 -0.867454 
-0.039471 0.794167 -0.866552 -0.026083 0.810532 -0.865551 
-0.012099 0.826172 -0.864441 0.002513 0.841036 -0.863207 
0.017784 0.855078 -0.861838 0.033745 0.868249 -0.860322 
0.050428 0.880500 -0.858645 0.067865 0.891783 -0.856796 
0.086071 0.902052 -0.854768 0.105000 0.911275 -0.852584 
0.124588 0.919419 -0.850270 0.144774 0.926455 -0.847856 
0.165494 0.932352 -0.845368 0.186687 0.937078 -0.842836 
0.208289 0.940604 -0.840286 0.230239 0.942898 -0.837748 
0.252474 0.943930 -0.835248 0.274930 0.943669 -0.832816 
0.297546 0.942084 -0.830479 0.320260 0.939145 -0.828264 
0.343008 0.934820 -0.826201 0.365727 0.929079 -0.824317 
0.388357 0.921892 -0.822640 0.410833 0.913227 -0.821198 
0.433094 0.903054 -0.820019 0.455077 0.891342 -0.819131 
0.476720 0.878060 -0.818562 0.497959 0.863178 -0.818340 
0.518732 0.846665 -0.818493 0.538978 0.828489 -0.819050 
0.558636 0.808624 -0.820036 0.577721 0.787107 -0.821442 
0.596322 0.764039 -0.823224 0.614531 0.739528 -0.825335 
0.632440 0.713677 -0.827728 0.650141 0.686592 -0.830358 
0.667725 0.658380 -0.833177 0.685285 0.629145 -0.836139 
0.702913 0.598992 -0.839199 0.720700 0.568028 -0.842308 
0.738739 0.536357 -0.845422 0.757121 0.504085 -0.848493 
0.775938 0.471318 -0.851476 0.795283 0.438161 -0.854323 
0.815246 0.404719 -0.856988 0.835921 0.371097 -0.859425 
0.857400 0.337402 -0.861588 0.879773 0.303739 -0.863429 
0.903133 0.270212 -0.864903 0.927572 0.236929 -0.865963 
0.953182 0.203993 -0.866562 0.980054 0.171510 -0.866655 
1.008281 0.139586 -0.866195 -0.999212 0.038271 -0.794680 
-0.910485 0.055079 -0.802141 -0.829023 0.072201 -0.808714 
-0.754482 0.089626 -0.814445 -0.686520 0.107342 -0.819384 
-0.624795 0.125338 -0.823575 -0.568965 0.143601 -0.827066 
-0.518687 0.162122 -0.829904 -0.473619 0.180887 -0.832136 
-0.433419 0.199886 -0.833809 -0.397745 0.219106 -0.834970 
-0.366253 0.238537 -0.835665 -0.338602 0.258167 -0.835943 
-0.314449 0.277984 -0.835849 -0.293452 0.297977 -0.835430 
-0.275270 0.318134 -0.834735 -0.259558 0.338444 -0.833808 
-0.245976 0.358895 -0.832699 -0.234180 0.379475 -0.831452 
-0.223829 0.400174 -0.830116 -0.214580 0.420979 -0.828738 
-0.206091 0.441878 -0.827363 -0.198019 0.462862 -0.826040 
-0.190029 0.483916 -0.824814 -0.181934 0.505012 -0.823701 
-0.173697 0.526105 -0.822689 -0.165288 0.547147 -0.821764 
-0.156677 0.568091 -0.820913 -0.147832 0.588892 -0.820121 
-0.138724 0.609503 -0.819374 -0.129321 0.629877 -0.818659 
-0.119594 0.649967 -0.817962 -0.109511 0.669727 -0.817270 
-0.099043 0.689110 -0.816567 -0.088159 0.708070 -0.815841 
-0.076828 0.726559 -0.815078 -0.065020 0.744532 -0.814263 
-0.052704 0.761941 -0.813384 -0.039850 0.778741 -0.812425 
-0.026427 0.794883 -0.811374 -0.012406 0.810323 -0.810217 
0.002245 0.825013 -0.808939 0.017556 0.838906 -0.807527 
0.033558 0.851956 -0.805967 0.050281 0.864117 -0.804245 
0.067756 0.875341 -0.802347 0.085997 0.885585 -0.800267 
0.104957 0.894813 -0.798026 0.124576 0.902994 -0.795653 
0.144789 0.910094 -0.793175 0.165536 0.916083 -0.790621 
0.186754 0.920926 -0.788020 0.208380 0.924593 -0.785400 
0.230352 0.927050 -0.782789 0.252609 0.928265 -0.780215 
0.275087 0.928207 -0.777708 0.297725 0.926841 -0.775296 
0.320461 0.924137 -0.773006 0.343231 0.920062 -0.770868 
0.365975 0.914583 -0.768910 0.388629 0.907668 -0.767159 
0.411132 0.899285 -0.765646 0.433421 0.889402 -0.764397 
0.455433 0.877985 -0.763441 0.477108 0.865003 -0.762808 
0.498382 0.850423 -0.762524 0.519193 0.834214 -0.762619 
0.539479 0.816342 -0.763121 0.559181 0.796778 -0.764057 
[...]
POINT_DATA 8281
SCALARS scalars float
LOOKUP_TABLE default
0.000000 0.000000 0.000000 0.000000 0.000000 0.000000 
0.000000 0.000000 0.000000 0.000000 0.000000 0.000000 
0.000000 0.000000 0.000000 0.000000 0.000000 0.000000 
0.000000 0.000000 0.000000 0.000000 0.000000 0.000000 
0.000000 0.000000 0.000000 0.000000 0.000000 0.000000 
0.000000 0.000000 0.000000 0.000000 0.000000 0.000000 
0.000000 0.000000 0.000000 0.000000 0.000000 0.000000 
0.000000 0.000000 0.000000 0.000000 0.000000 0.000000 
0.000000 0.000000 0.000000 0.000000 0.000000 0.000000 
0.000000 0.000000 0.000000 0.000000 0.000000 0.000000 
0.000000 0.000000 0.000000 0.000000 0.000000 0.000000 
0.000000 0.000000 0.000000 0.000000 0.000000 0.000000 
0.000000 0.000000 0.000000 0.000000 0.000000 0.000000 
0.000000 0.000000 0.000000 0.000000 0.000000 0.000000 
0.000000 0.000000 0.000000 0.000000 0.000000 0.000000 
0.000000 0.000000 -0.599802 -0.516044 -0.427210 -0.337584 
-0.249408 -0.163614 -0.080545 -0.000613 0.075135 0.144560 
0.204195 0.249437 0.275427 0.278639 0.258724 0.219604 
0.168922 0.115864 0.068498 0.032030 0.008504 -0.002454 
-0.002471 0.000328 0.003538 0.007271 0.011685 0.016985 
0.023431 0.031346 0.041126 0.053243 0.068249 0.086773 
0.109505 0.137164 0.170443 0.209929 0.255989 0.308624 
0.367312 0.430860 0.497294 0.563851 0.627104 0.656275 
0.683255 0.708299 0.731544 0.752971 0.772384 0.789398 
0.803435 0.813743 0.819426 0.819494 0.812942 0.798841 
0.776449 0.745322 0.705415 0.657161 0.601498 0.539847 
0.474027 0.406126 0.338337 0.255869 0.173954 0.112224 
0.067245 0.035423 0.013573 -0.000909 -0.010058 -0.015440 
-0.018269 -0.019531 -0.020092 -0.020798 -0.022571 -0.026498 
-0.033909 -0.046452 -0.066128 -0.095281 -0.136487 -0.192309 
-0.264845 0.000000 0.000000 -0.583774 -0.506592 -0.421423 
-0.332530 -0.242361 -0.152113 -0.062403 0.026042 0.111731 
0.191814 0.261729 0.315391 0.346284 0.349540 0.324380 
0.275577 0.212678 0.147097 0.088688 0.043633 0.014235 
-0.000015 -0.000951 0.001784 0.005258 0.009566 0.014860 
0.021356 0.029336 0.039155 0.051251 0.066142 0.084428 
0.106783 0.133930 0.166599 0.205466 0.251060 0.303638 
0.363049 0.428573 0.498798 0.571540 0.643864 0.712239 
0.744477 0.775190 0.804598 0.832766 0.859580 0.884715 
0.907625 0.927531 0.943437 0.954159 0.958377 0.954730 
0.941923 0.918875 0.884868 0.839693 0.783766 0.718180 
0.644692 0.565612 0.483630 0.401586 0.301204 0.201744 
0.127350 0.073508 0.035672 0.009895 -0.006996 -0.017447 
-0.023308 -0.025996 -0.026633 -0.026188 -0.025593 -0.025863 
-0.028205 -0.034128 -0.045536 -0.064803 -0.094780 -0.138693 
-0.199863 -0.281182 0.000000 0.000000 -0.565732 -0.494850 
-0.413126 -0.324634 -0.231892 -0.136274 -0.038612 0.060076 
0.157820 0.250937 0.333526 0.397628 0.434586 0.437757 
0.405777 0.344508 0.265975 0.184478 0.112156 0.056403 
0.019813 0.001679 -0.000151 0.002710 0.006698 0.011891 
0.018440 0.026577 0.036610 0.048936 0.064038 0.082487 
0.104932 0.132089 0.164705 0.203506 0.249122 0.301985 
0.362199 0.429400 0.502618 0.580166 0.659604 0.737801 
0.811120 0.845851 0.879853 0.913325 0.946284 0.978538 
1.009652 1.038928 1.065394 1.087800 1.104650 1.114249 
1.114806 1.104562 1.081973 1.045908 0.995852 0.932084 
0.855778 0.769004 0.674615 0.576020 0.476876 0.354635 
0.233582 0.143568 0.078820 0.033642 0.003146 -0.016548 
-0.028401 -0.034627 -0.036884 -0.036464 -0.034446 -0.031851 
-0.029773 -0.029523 -0.032758 -0.041614 -0.058805 -0.087659 
-0.132028 -0.195986 -0.283231 0.000000 0.000000 -0.545411 
-0.480495 -0.401955 -0.313482 -0.217506 -0.115450 -0.008281 
0.102737 0.215127 0.324243 0.422545 0.499708 0.544302 
0.547336 0.506621 0.429400 0.330912 0.229202 0.139341 
0.070245 0.024836 0.002121 -0.000517 0.002748 0.007603 
0.014110 0.022426 0.032802 0.045582 0.061210 0.080219 
0.103236 0.130960 0.164139 0.203528 0.249819 0.303557 
0.365025 0.434112 0.510174 0.591920 0.677334 0.763683 
0.847623 0.925423 0.961760 0.998324 1.035305 1.072689 
1.110218 1.147368 1.183310 1.216888 1.246612 1.270663 
1.286944 1.293176 1.287042 1.266404 1.229550 1.175479 
1.104152 1.016676 0.915358 0.803605 0.685649 0.566156 
0.417329 0.269703 0.160387 0.082182 0.028011 -0.008161 
-0.031103 -0.044423 -0.050789 -0.052169 -0.050056 -0.045660 
-0.040088 -0.034506 -0.030303 -0.029257 -0.033693 -0.046620 
-0.071794 -0.113638 -0.176937 -0.266167 0.000000 0.000000 
-0.522583 -0.463240 -0.387584 -0.298717 -0.198780 -0.089087 
0.029386 0.155198 0.285365 0.414134 0.531976 0.625590 
0.679963 0.682983 0.631277 0.533798 0.409936 0.282602 
0.170643 0.084899 0.028668 0.000562 -0.002712 0.001359 
0.007574 0.015986 0.026763 0.040182 0.056632 0.076605 
0.100695 0.129580 0.164001 0.204723 0.252477 0.307881 
0.371337 0.442907 0.522183 0.608164 0.699164 0.792781 
0.885961 0.975152 1.056568 1.093189 1.131201 1.170785 
1.211898 1.254235 1.297194 1.339839 1.380859 1.418542 
1.450764 1.475020 1.488509 1.488283 1.471479 1.435628 
1.379015 1.301035 1.202501 1.085787 0.954789 0.814630 
0.671183 0.490197 0.309937 0.176774 0.081946 0.016757 
-0.026230 -0.052891 -0.067652 -0.073759 -0.073572 -0.068837 
-0.060920 -0.051023 -0.040374 -0.030424 -0.023042 -0.020709 
-0.026683 -0.045095 -0.080890 -0.139508 -0.226179 0.000000 
0.000000 -0.497105 -0.442883 -0.369790 -0.280108 -0.175462 
-0.056847 0.074926 0.218357 0.369987 0.522826 0.664962 
0.779381 0.846452 0.849910 0.784655 0.661703 0.505767 
0.346056 0.206312 0.099822 0.030325 -0.004094 -0.007702 
-0.002263 0.005996 0.017122 0.031296 0.048834 0.070171 
0.095857 0.126542 0.162950 0.205847 0.255982 0.314019 
0.380435 0.455409 0.538690 0.629476 0.726315 0.827050 
0.928849 1.028327 1.121760 1.205378 1.240399 1.278239 
1.319059 1.362777 1.409043 1.457196 1.506214 1.554666 
1.600654 1.641789 1.675182 1.697513 1.705156 1.694426 
1.661916 1.604942 1.522026 1.413350 1.281072 1.129391 
0.964307 0.793064 0.573508 0.353363 0.190806 0.075475 
-0.003184 -0.054304 -0.085134 -0.101138 -0.106302 -0.103492 
-0.094779 -0.081729 -0.065656 -0.047859 -0.029845 -0.013564 
-0.001635 0.002452 -0.005789 -0.031799 -0.081653 -0.161343 
0.000000 0.000000 -0.468978 -0.419377 -0.348523 -0.257649 
-0.147598 -0.018783 0.128380 0.292524 0.469804 0.651899 
0.824099 0.964815 1.048517 1.053417 0.971884 0.817317 
0.621171 0.420792 0.246257 0.114006 0.028312 -0.013440 
-0.016888 -0.009298 0.001940 0.016869 0.035697 0.058777 
0.086597 0.119765 0.158979 0.204991 0.258558 0.320364 
0.390933 0.470513 0.558950 0.655566 0.759051 0.867399 
0.977917 1.087320 1.191917 1.287886 1.371593 1.402434 
1.437863 1.477981 1.522646 1.571452 1.623683 1.678257 
1.733655 1.787852 1.838249 1.881637 1.914217 1.931695 
1.929504 1.903154 1.848738 1.763542 1.646690 1.499680 
1.326671 1.134375 0.931492 0.666231 0.397727 0.199132 
0.058617 -0.036421 -0.097131 -0.132465 -0.149204 -0.152292 
-0.145253 -0.130592 -0.110144 -0.085383 -0.057705 -0.028700 
-0.000421 0.024347 0.041853 0.047225 0.034493 -0.003093 
-0.072339 0.000000 0.000000 -0.438394 -0.392896 -0.323999 
-0.231670 -0.115684 0.024436 0.188981 0.376987 0.584410 
0.801579 1.010594 1.184339 1.289848 1.298043 1.197576 
1.004433 0.758477 0.507484 0.289725 0.125711 0.020390 
-0.029749 -0.032276 -0.021468 -0.005992 0.014198 0.039334 
0.069815 0.106181 0.149084 0.199253 0.257433 0.324313 
0.400435 0.486083 0.581149 0.685014 0.796432 0.913456 
1.033440 1.153108 1.268737 1.376411 1.472342 1.553194 
1.576484 1.606558 1.643391 1.686732 1.736090 1.790688 
1.849395 1.910648 1.972349 2.031772 2.085480 2.129288 
2.158304 2.167089 2.149990 2.101662 2.017789 1.895921 
1.736307 1.542506 1.321551 1.083523 0.764991 0.438550 
0.196154 0.024943 -0.089819 -0.161623 -0.201515 -0.217951 
-0.217122 -0.203432 -0.179976 -0.148971 -0.112139 -0.071046 
-0.027435 0.016461 0.057606 0.091894 0.113971 0.117246 
0.094210 0.037155 0.000000 0.000000 -0.405777 -0.363891 
-0.296774 -0.202947 -0.080832 0.071286 0.254781 0.469470 
0.711415 0.969717 1.222995 1.437645 1.571510 1.586025 
1.464445 1.225287 0.918659 0.605544 0.334748 0.132046 
0.003265 -0.056227 -0.056688 -0.041242 -0.019864 0.007490 
0.041080 0.081341 0.128855 0.184298 0.248386 0.321793 
0.405058 0.498465 0.601915 0.714791 0.835841 0.963097 
1.093861 1.224775 1.351988 1.471419 1.579074 1.671394 
1.745563 1.757133 1.778203 1.808516 1.847636 1.894933 
1.949542 2.010287 2.075585 2.143330 2.210757 2.274322 
2.329590 2.371206 2.392963 2.388064 2.349605 2.271352 
2.148751 1.980082 1.767509 1.517715 1.241798 0.862495 
0.467799 0.172850 -0.035338 -0.173496 -0.257749 -0.301689 
-0.315906 -0.308234 -0.284266 -0.247924 -0.201992 -0.148587 
-0.089583 -0.027009 0.036578 0.097741 0.151865 0.192971 
0.213733 0.205795 0.160473 0.000000 0.000000 -0.371805 
-0.333131 -0.267803 -0.172787 -0.044901 0.119158 0.322276 
0.565524 0.845533 1.150490 1.455460 1.719531 1.889526 
1.914809 1.770965 1.478536 1.099725 0.711915 0.377289 
0.128381 -0.027814 -0.097300 -0.094031 -0.072098 -0.042679 
-0.005737 0.039003 0.091999 0.153843 0.225189 0.306672 
0.398799 0.501828 0.615629 0.739543 0.872251 1.011689 
1.155023 1.298712 1.438682 1.570586 1.690151 1.793538 
1.877684 1.940552 1.935595 1.943456 1.963498 1.994985 
2.037068 2.088743 2.148768 2.215557 2.287039 2.360504 
2.432425 2.498291 2.552474 2.588197 2.597658 2.572423 
2.504157 2.385744 2.212735 1.984915 1.707603 1.392181 
0.945369 0.472031 0.115137 -0.136848 -0.302146 -0.399700 
-0.446161 -0.454840 -0.435751 -0.396127 -0.341074 -0.274226 
-0.198336 -0.115803 -0.029153 0.058527 0.143198 0.219560 
0.280876 0.319008 0.324730 0.288389 0.000000 0.000000 
-0.337389 -0.301695 -0.238451 -0.143049 -0.010550 0.164239 
0.386141 0.658020 0.977682 1.332976 1.695686 2.017144 
2.231537 2.273394 2.107777 1.756080 1.294154 0.819179 
0.409953 0.107538 -0.079537 -0.158910 -0.149567 -0.118827 
-0.078715 -0.029218 0.029925 0.099161 0.179038 0.270109 
0.372820 0.487371 0.613569 0.750670 0.897240 1.051056 
1.209073 1.367481 1.521884 1.667575 1.799901 1.914669 
2.008510 2.079175 2.125682 2.099179 2.089450 2.095290 
2.115511 2.148938 2.194350 2.250395 2.315472 2.387575 
2.464112 2.541694 2.615902 2.681065 2.730095 2.754457 
2.744380 2.689457 2.579737 2.407381 2.168742 1.866482 
1.511083 0.991512 0.430065 0.001812 -0.300886 -0.496680 
-0.607315 -0.653052 -0.650688 -0.613167 -0.550011 -0.468042 
-0.372174 -0.266156 -0.153220 -0.036664 0.079650 0.190885 
0.290928 0.372239 0.425912 0.441971 0.409917 0.000000 
0.000000 -0.303629 -0.270925 -0.210424 -0.116071 0.018850 
0.201585 0.439231 0.736949 1.094425 1.499993 1.922913 
2.306985 2.572808 2.637624 2.452772 2.038516 1.485172 
0.912835 0.420218 0.058787 -0.161019 -0.248756 -0.230130 
-0.187808 -0.133884 -0.068410 0.008821 0.098175 0.200070 
0.314845 0.442606 0.583062 0.735354 0.897897 1.068265 
1.243147 1.418400 1.589224 1.750463 1.896996 2.024178 
2.128262 2.206725 2.258462 2.283792 2.231277 2.200076 
2.188188 2.193806 2.215296 2.251128 2.299772 2.359572 
2.428579 2.504352 2.583717 2.662485 2.735154 2.794612 
2.831929 2.836349 2.795645 2.697048 2.528933 2.283287 
1.958712 1.563226 0.967491 0.310512 -0.197703 -0.557456 
-0.786015 -0.907586 -0.946634 -0.924440 -0.857945 -0.759904 
-0.639639 -0.503967 -0.358124 -0.206568 -0.053670 0.095727 
0.235884 0.359889 0.459542 0.525411 0.547064 0.513413 
0.000000 0.000000 -0.271719 -0.242309 -0.185637 -0.094471 
0.039492 0.225496 0.473015 0.789848 1.178190 1.627850 
2.106840 2.552615 2.872527 2.965204 2.765405 2.289566 
1.642036 0.967856 0.388306 -0.033206 -0.284127 -0.376281 
-0.344157 -0.287142 -0.216018 -0.130957 -0.031880 0.081410 
0.209081 0.351102 0.507053 0.675940 0.856012 1.044625 
1.238184 1.432180 1.621372 1.800095 1.962687 2.103968 
2.219722 2.307074 2.364720 2.392965 2.393578 2.312263 
2.257159 2.225248 2.213942 2.221019 2.244538 2.282714 
2.333775 2.395787 2.466441 2.542797 2.620969 2.695758 
2.760261 2.805486 2.820104 2.790496 2.701379 2.537308 
2.285324 1.938719 1.501318 0.827219 0.070086 -0.525098 
-0.946915 -1.208534 -1.335851 -1.358185 -1.302660 -1.191735 
-1.042788 -0.868763 -0.679244 -0.481570 -0.281840 -0.085733 
0.100864 0.271420 0.418492 0.533620 0.607327 0.629189 
0.587883 0.000000 0.000000 -0.242836 -0.217335 -0.165997 
-0.080840 0.047603 0.230204 0.478562 0.803072 1.208761 
1.687814 2.208645 2.704670 3.072261 3.192390 2.981956 
2.450823 1.715311 0.945225 0.285198 -0.189075 -0.463322 
-0.552180 -0.501275 -0.426419 -0.334863 -0.226972 -0.102883 
0.037319 0.193411 0.364824 0.550425 0.748312 0.955659 
1.168620 1.382358 1.591214 1.789017 1.969536 2.127006 
2.256659 2.355163 2.420908 2.454079 2.456516 2.431413 
2.321528 2.242658 2.190608 2.161886 2.153597 2.163314 
2.188929 2.228485 2.279997 2.341226 2.409413 2.480947 
2.550967 2.612875 2.657832 2.674271 2.647627 2.560566 
2.394124 2.130250 1.756082 1.269698 0.513922 -0.345601 
-1.032993 -1.520056 -1.812210 -1.935796 -1.925767 -1.817002 
-1.639698 -1.417863 -1.169649 -0.908514 -0.644592 -0.385950 
-0.139595 0.087778 0.289291 0.457576 0.584597 0.661515 
0.678505 0.624421 0.000000 0.000000 -0.218014 -0.197313 
-0.153153 -0.077363 0.040037 0.210829 0.448014 0.763968 
1.166268 1.649898 2.185307 2.705105 3.099254 3.235516 
3.015038 2.439786 1.634517 0.790201 0.072012 -0.434311 
-0.714518 -0.787072 -0.711170 -0.615777 -0.501409 -0.368688 
-0.218051 -0.049963 0.134842 0.335127 0.548911 0.773279 
1.004261 1.236825 1.465021 1.682277 1.881861 2.057431 
2.203620 2.316536 2.394114 2.436241 2.444649 2.422612 
2.374511 2.240581 2.141658 2.072348 2.028249 2.005788 
2.002038 2.014539 2.041104 2.079625 2.127840 2.183064 
2.241851 2.299562 2.349845 2.384016 2.390390 2.353722 
2.255008 2.072156 1.782182 1.365675 0.813812 -0.032186 
-0.996354 -1.780615 -2.334655 -2.651691 -2.756818 -2.691710 
-2.501770 -2.228170 -1.904428 -1.556044 -1.201686 -0.854909 
-0.525798 -0.222314 0.048725 0.280967 0.468072 0.603359 
0.679438 0.687711 0.617635 0.000000 0.000000 -0.198028 
-0.183205 -0.148253 -0.085447 0.014874 0.164376 0.376258 
0.663590 1.035364 1.488883 1.997635 2.496961 2.877031 
3.001041 2.761790 2.155681 1.312046 0.435249 -0.297319 
-0.796542 -1.052381 -1.089059 -0.981429 -0.863912 -0.726110 
-0.568924 -0.393111 -0.199544 0.010513 0.235142 0.471537 
0.715845 0.963109 1.207365 1.441904 1.659702 1.853976 
2.018795 2.149642 2.243831 2.300711 2.321620 2.309612 
2.269032 2.205009 2.056599 1.945455 1.865171 1.810596 
1.777603 1.762851 1.763565 1.777330 1.801869 1.834811 
1.873410 1.914203 1.952569 1.982171 1.994261 1.976873 
1.914009 1.785056 1.564943 1.225852 0.741589 0.095571 
-0.859083 -1.934604 -2.822812 -3.445988 -3.780028 -3.846755 
-3.696184 -3.388260 -2.979788 -2.517805 -2.037920 -1.565467 
-1.117775 -0.706506 -0.339612 -0.022808 0.239391 0.442909 
0.583474 0.655966 0.653609 0.566875 0.000000 0.000000 
-0.183303 -0.175500 -0.151761 -0.105450 -0.028129 0.090533 
0.262367 0.499251 0.809575 1.191313 1.620780 2.038896 
2.343637 2.406035 2.124226 1.497459 0.657648 -0.188938 
-0.867841 -1.299434 -1.485766 -1.460207 -1.314370 -1.174879 
-1.015658 -0.837790 -0.642237 -0.430143 -0.203137 0.036395 
0.285096 0.538523 0.791171 1.036661 1.268100 1.478598 
1.661866 1.812806 1.928002 2.006009 2.047401 2.054591 
2.031444 1.982797 1.913953 1.765489 1.653829 1.572011 
1.514499 1.476883 1.455607 1.447716 1.450629 1.461907 
1.479013 1.499020 1.518264 1.531886 1.533242 1.513148 
1.458949 1.353491 1.174189 0.892689 0.476017 -0.109344 
-0.888783 -1.982634 -3.185381 -4.191073 -4.889309 -5.232915 
-5.238040 -4.965333 -4.494848 -3.905445 -3.263006 -2.616603 
-1.999619 -1.433002 -0.928853 -0.493485 -0.129748 0.161309 
0.379233 0.523191 0.591055 0.578357 0.476993 0.000000 
0.000000 -0.173864 -0.174133 -0.163357 -0.136551 -0.087353 
-0.007989 0.110322 0.276065 0.494388 0.761256 1.054113 
1.320722 1.473739 1.406197 1.040564 0.394491 -0.395010 
-1.132849 -1.669040 -1.953214 -2.011847 -1.892687 -1.703442 
-1.544175 -1.368593 -1.177685 -0.972295 -0.753465 -0.522757 
-0.282527 -0.036105 0.212124 0.456807 0.691869 0.910919 
1.107782 1.277070 1.414704 1.518294 1.587316 1.623051 
1.628328 1.607117 1.564069 1.504065 1.373508 1.275767 
1.204036 1.152940 1.118202 1.096355 1.084478 1.079963 
1.080276 1.082709 1.084086 1.080397 1.066323 1.034603 
0.975214 0.874322 0.713049 0.466213 0.101494 -0.420019 
-1.140227 -2.094989 -3.366840 -4.723191 -5.868777 -6.655084 
-7.005350 -6.926954 -6.493774 -5.812947 -4.993510 -4.126741 
-3.278944 -2.492636 -1.791557 -1.186372 -0.679539 -0.268951 
0.049538 0.280367 0.426994 0.490808 0.470019 0.358341 
0.000000 0.000000 -0.169317 -0.178481 -0.181943 -0.176799 
-0.159430 -0.125647 -0.071209 0.006898 0.107867 0.222501 
0.326559 0.373971 0.296595 0.022275 -0.481442 -1.157498 
-1.855249 -2.401950 -2.696936 -2.744209 -2.610946 -2.366206 
-2.130654 -1.955504 -1.771137 -1.577956 -1.376131 -1.165985 
-0.948328 -0.724720 -0.497648 -0.270577 -0.047859 0.165516 
0.364302 0.543469 0.698703 0.826829 0.926104 0.996330 
1.038759 1.055860 1.050964 1.027888 0.990581 0.897097 
0.828551 0.779170 0.744399 0.720596 0.704752 0.694252 
0.686649 0.679433 0.669788 0.654286 0.628508 0.586545 
0.520317 0.418679 0.266246 0.041959 -0.282510 -0.744086 
-1.388423 -2.266996 -3.428169 -4.913529 -6.454580 -7.768283 
-8.663006 -9.025360 -8.849592 -8.224550 -7.291573 -6.198747 
-5.069874 -3.992276 -3.018252 -2.172909 -1.463115 -0.885023 
-0.429495 -0.085679 0.156732 0.306032 0.367426 0.342032 
0.225755 0.000000 0.000000 -0.168877 -0.187398 -0.205734 
-0.223291 -0.239605 -0.254719 -0.269953 -0.289268 -0.321554 
-0.383921 -0.505328 -0.727792 -1.098938 -1.647784 -2.344477 
-3.071038 -3.649744 -3.935855 -3.900651 -3.628525 -3.245215 
-2.848730 -2.566897 -2.380352 -2.195669 -2.011994 -1.828117 
-1.642880 -1.455523 -1.265949 -1.074908 -0.884066 -0.695959 
-0.513817 -0.341267 -0.181970 -0.039225 0.084378 0.187209 
0.268714 0.329387 0.370624 0.394495 0.403489 0.400261 
0.361343 0.335855 0.319936 0.310521 0.305093 0.301480 
0.297651 0.291528 0.280780 0.262587 0.233338 0.188242 
0.120799 0.022080 -0.120241 -0.323176 -0.610056 -1.012429 
-1.571886 -2.340920 -3.380945 -4.754121 -6.468581 -8.216620 
-9.721786 -10.746858 -11.135835 -10.864073 -10.034357 -8.826808 
-7.435828 -6.023978 -4.702838 -3.534776 -2.544693 -1.733422 
-1.088701 -0.592771 -0.227076 0.025066 0.176972 0.237713 
0.211412 0.096476 0.000000 0.000000 -0.171416 -0.199307 
-0.232403 -0.272452 -0.322231 -0.386213 -0.471630 -0.590033 
-0.759387 -1.006251 -1.366455 -1.880464 -2.577012 -3.440080 
-4.368830 -5.168955 -5.621186 -5.606843 -5.183156 -4.535507 
-3.863770 -3.301672 -2.976382 -2.781990 -2.604039 -2.439699 
-2.285675 -2.138625 -1.995500 -1.853817 -1.711867 -1.568842 
-1.424876 -1.280995 -1.138950 -1.000990 -0.869560 -0.747010 
-0.635327 -0.535949 -0.449673 -0.376647 -0.316448 -0.268202 
-0.230729 -0.202107 -0.174277 -0.148466 -0.125722 -0.107029 
-0.093424 -0.086114 -0.086620 -0.096938 -0.119757 -0.158745 
-0.218943 -0.307304 -0.433437 -0.610635 -0.857238 -1.198409 
-1.668273 -2.312158 -3.188153 -4.366206 -5.921369 -7.845528 
-9.797460 -11.496928 -12.664433 -13.099595 -12.752908 -11.735520 
-10.264745 -8.583403 -6.895964 -5.340263 -3.989006 -2.865982 
-1.964694 -1.263366 -0.734943 -0.352902 -0.094230 0.059233 
0.120247 0.095896 -0.012727 0.000000 0.000000 -0.175539 
-0.212319 -0.259279 -0.320345 -0.401321 -0.510835 -0.661685 
-0.872610 -1.170279 -1.590559 -2.176677 -2.969365 -3.982085 
-5.158455 -6.329244 -7.219918 -7.559073 -7.244759 -6.420742 
-5.382646 -4.413940 -3.688438 -3.324391 -3.123412 -2.955722 
-2.815896 -2.698034 -2.596162 -2.504538 -2.417921 -2.331804 
-2.242607 -2.147838 -2.046170 -1.937436 -1.822520 -1.703154 
-1.581642 -1.460554 -1.342436 -1.229563 -1.123773 -1.026387 
-0.938196 -0.859506 -0.757159 -0.671066 -0.599430 -0.540987 
-0.494965 -0.461084 -0.439582 -0.431288 -0.437731 -0.461331 
-0.505651 -0.575783 -0.678876 -0.824879 -1.027573 -1.305952 
-1.686050 -2.203182 -2.904438 -3.850773 -5.117160 -6.787724 
-8.861020 -10.976973 -12.840247 -14.140469 -14.638627 -14.256690 
-13.103883 -11.424187 -9.502360 -7.582525 -5.828821 -4.324959 
-3.094184 -2.123096 -1.380821 -0.831498 -0.441200 -0.181148 