# vtk DataFile Version 1.0
vtk output
ASCII
DATASET POLYDATA
POINTS 8281 float
-0.995034 -0.002064 -0.904500 -0.908557 0.022468 -0.916493 
-0.829034 0.046704 -0.927385 -0.756140 0.070660 -0.937228 
-0.689552 0.094356 -0.946073 -0.628943 0.117807 -0.953972 
-0.573990 0.141032 -0.960979 -0.524368 0.164048 -0.967145 
-0.479752 0.186872 -0.972522 -0.439817 0.209522 -0.977163 
-0.404238 0.232016 -0.981120 -0.372691 0.254370 -0.984444 
-0.344851 0.276603 -0.987189 -0.320393 0.298732 -0.989406 
-0.298992 0.320774 -0.991147 -0.280325 0.342747 -0.992465 
-0.264065 0.364668 -0.993411 -0.249888 0.386555 -0.994039 
-0.237470 0.408425 -0.994400 -0.226486 0.430296 -0.994545 
-0.216611 0.452185 -0.994529 -0.207520 0.474110 -0.994402 
-0.198888 0.496088 -0.994217 -0.190398 0.518136 -0.994024 
-0.181868 0.540235 -0.993847 -0.173261 0.562336 -0.993677 
-0.164540 0.584388 -0.993506 -0.155672 0.606337 -0.993327 
-0.146624 0.628134 -0.993131 -0.137360 0.649725 -0.992909 
-0.127847 0.671060 -0.992654 -0.118051 0.692086 -0.992357 
-0.107938 0.712753 -0.992009 -0.097473 0.733007 -0.991604 
-0.086623 0.752798 -0.991132 -0.075353 0.772073 -0.990585 
-0.063630 0.790782 -0.989955 -0.051418 0.808872 -0.989234 
-0.038685 0.826292 -0.988413 -0.025396 0.842989 -0.987484 
-0.011517 0.858913 -0.986439 0.002986 0.874012 -0.985270 
0.018147 0.888233 -0.983968 0.034001 0.901525 -0.982526 
0.050581 0.913837 -0.980934 0.067921 0.925116 -0.979185 
0.086040 0.935316 -0.977276 0.104890 0.944405 -0.975227 
0.124407 0.952358 -0.973065 0.144529 0.959149 -0.970815 
0.165192 0.964752 -0.968503 0.186333 0.969140 -0.966156 
0.207887 0.972288 -0.963798 0.229793 0.974169 -0.961457 
0.251986 0.974757 -0.959159 0.274403 0.974026 -0.956928 
0.296981 0.971951 -0.954792 0.319656 0.968504 -0.952776 
0.342365 0.963660 -0.950905 0.365044 0.957394 -0.949207 
0.387631 0.949677 -0.947708 0.410061 0.940486 -0.946432 
0.432272 0.929793 -0.945406 0.454200 0.917572 -0.944656 
0.475781 0.903798 -0.944208 0.496952 0.888444 -0.944089 
0.517650 0.871484 -0.944323 0.537812 0.852893 -0.944937 
0.557377 0.832645 -0.945956 0.576362 0.810768 -0.947369 
0.594860 0.787338 -0.949133 0.612967 0.762434 -0.951202 
0.630780 0.736135 -0.953531 0.648396 0.708518 -0.956074 
0.665910 0.679664 -0.958786 0.683419 0.649651 -0.961622 
0.701020 0.618557 -0.964535 0.718809 0.586462 -0.967481 
0.736883 0.553444 -0.970414 0.755338 0.519582 -0.973288 
0.774269 0.484954 -0.976058 0.793775 0.449640 -0.978678 
0.813951 0.413718 -0.981104 0.834894 0.377266 -0.983290 
0.856700 0.340365 -0.985189 0.879465 0.303092 -0.986757 
0.903286 0.265526 -0.987948 0.928260 0.227745 -0.988717 
0.954482 0.189830 -0.989019 0.982050 0.151858 -0.988807 
1.011060 0.113908 -0.988036 -0.996790 0.011285 -0.865722 
-0.909419 0.033125 -0.876055 -0.829125 0.054881 -0.885360 
-0.755575 0.076563 -0.893688 -0.688440 0.098177 -0.901091 
-0.627385 0.119732 -0.907617 -0.572081 0.141233 -0.913319 
-0.522195 0.162689 -0.918246 -0.477396 0.184107 -0.922450 
-0.437351 0.205494 -0.925980 -0.401729 0.226858 -0.928888 
-0.370200 0.248206 -0.931224 -0.342429 0.269546 -0.933039 
-0.318087 0.290885 -0.934383 -0.296842 0.312230 -0.935308 
-0.278361 0.333590 -0.935863 -0.262313 0.354970 -0.936099 
-0.248366 0.376379 -0.936067 -0.236189 0.397824 -0.935818 
-0.225451 0.419312 -0.935401 -0.215818 0.440852 -0.934869 
-0.206960 0.462449 -0.934271 -0.198545 0.484112 -0.933658 
-0.190247 0.505847 -0.933080 -0.181885 0.527633 -0.932555 
-0.173419 0.549420 -0.932076 -0.164816 0.571158 -0.931632 
-0.156045 0.592798 -0.931211 -0.147073 0.614290 -0.930804 
-0.137866 0.635582 -0.930399 -0.128392 0.656626 -0.929987 
-0.118619 0.677371 -0.929556 -0.108514 0.697767 -0.929097 
-0.098044 0.717764 -0.928597 -0.087177 0.737312 -0.928048 
-0.075880 0.756361 -0.927438 -0.064120 0.774860 -0.926756 
-0.051865 0.792760 -0.925993 -0.039082 0.810011 -0.925137 
-0.025739 0.826562 -0.924178 -0.011802 0.842363 -0.923105 
0.002761 0.857365 -0.921908 0.017982 0.871517 -0.920576 
0.033894 0.884769 -0.919099 0.050530 0.897072 -0.917466 
0.067922 0.908374 -0.915666 0.086088 0.918630 -0.913696 
0.104979 0.927807 -0.911575 0.124534 0.935877 -0.909332 
0.144689 0.942810 -0.906993 0.165382 0.948579 -0.904586 
0.186549 0.953155 -0.902138 0.208127 0.956508 -0.899676 
0.230055 0.958611 -0.897227 0.252268 0.959434 -0.894819 
0.274704 0.958950 -0.892478 0.297300 0.957128 -0.890233 
0.319993 0.953942 -0.888109 0.342720 0.949361 -0.886135 
0.365419 0.943358 -0.884337 0.388025 0.935903 -0.882743 
0.410478 0.926969 -0.881380 0.432713 0.916526 -0.880276 
0.454667 0.904545 -0.879456 0.476278 0.890999 -0.878950 
0.497483 0.875857 -0.878783 0.518219 0.859093 -0.878983 
0.538423 0.840677 -0.879577 0.558035 0.820582 -0.880591 
0.577071 0.798842 -0.882016 0.595622 0.775548 -0.883806 
0.613782 0.750792 -0.885915 0.631645 0.724668 -0.888298 
0.649304 0.697270 -0.890908 0.666855 0.668691 -0.893698 
0.684390 0.639024 -0.896623 0.702004 0.608364 -0.899636 
0.719792 0.576803 -0.902691 0.737847 0.544435 -0.905742 
0.756263 0.511353 -0.908742 0.775134 0.477652 -0.911645 
0.794554 0.443424 -0.914405 0.814618 0.408762 -0.916976 
0.835420 0.373761 -0.919311 0.857053 0.338514 -0.921365 
0.879611 0.303114 -0.923090 0.903189 0.267655 -0.924442 
0.927881 0.232230 -0.925372 0.953780 0.196932 -0.925836 
0.980981 0.161856 -0.925787 1.009578 0.127094 -0.925179 
-0.998174 0.024733 -0.829152 -0.910056 0.043999 -0.837976 
-0.829118 0.063386 -0.845844 -0.755022 0.082891 -0.852805 
-0.687431 0.102513 -0.858907 -0.626006 0.122250 -0.864200 
-0.570411 0.142098 -0.868732 -0.520307 0.162056 -0.872552 
-0.475358 0.182122 -0.875710 -0.435225 0.202293 -0.878253 
-0.399572 0.222567 -0.880231 -0.368061 0.242941 -0.881693 
-0.340353 0.263414 -0.882688 -0.316113 0.283983 -0.883264 
-0.295001 0.304646 -0.883470 -0.276682 0.325400 -0.883356 
-0.260816 0.346244 -0.882969 -0.247067 0.367175 -0.882360 
-0.235097 0.388190 -0.881576 -0.224568 0.409288 -0.880668 
-0.215143 0.430466 -0.879682 -0.206485 0.451721 -0.878670 
-0.198256 0.473053 -0.877678 -0.190125 0.494457 -0.876756 
-0.181907 0.515907 -0.875920 -0.173564 0.537358 -0.875161 
-0.165066 0.558760 -0.874465 -0.156380 0.580064 -0.873821 
-0.147475 0.601223 -0.873215 -0.138320 0.622189 -0.872635 
-0.128883 0.642912 -0.872070 -0.119133 0.663344 -0.871505 
-0.109038 0.683437 -0.870930 -0.098567 0.703143 -0.870331 
-0.087689 0.722413 -0.869697 -0.076371 0.741199 -0.869014 
-0.064583 0.759452 -0.868271 -0.052294 0.777124 -0.867454 
-0.039471 0.794167 -0.866552 -0.026083 0.810532 -0.865551 
-0.012099 0.826172 -0.864441 0.002513 0.841036 -0.863207 
0.017784 0.855078 -0.861838 0.033745 0.868249 -0.860322 
0.050428 0.880500 -0.858645 0.067865 0.891783 -0.856796 
0.086071 0.902052 -0.854768 0.105000 0.911275 -0.852584 
0.124588 0.919419 -0.850270 0.144774 0.926455 -0.847856 
0.165494 0.932352 -0.845368 0.186687 0.937078 -0.842836 
0.208289 0.940604 -0.840286 0.230239 0.942898 -0.837748 
0.252474 0.943930 -0.835248 0.274930 0.943669 -0.832816 
0.297546 0.942084 -0.830479 0.320260 0.939145 -0.828264 
0.343008 0.934820 -0.826201 0.365727 0.929079 -0.824317 
0.388357 0.921892 -0.822640 0.410833 0.913227 -0.821198 
0.433094 0.903054 -0.820019 0.455077 0.891342 -0.819131 
0.476720 0.878060 -0.818562 0.497959 0.863178 -0.818340 
0.518732 0.846665 -0.818493 0.538978 0.828489 -0.819050 
0.558636 0.808624 -0.820036 0.577721 0.787107 -0.821442 
0.596322 0.764039 -0.823224 0.614531 0.739528 -0.825335 
0.632440 0.713677 -0.827728 0.650141 0.686592 -0.830358 
0.667725 0.658380 -0.833177 0.685285 0.629145 -0.836139 
0.702913 0.598992 -0.839199 0.720700 0.568028 -0.842308 
0.738739 0.536357 -0.845422 0.757121 0.504085 -0.848493 
0.775938 0.471318 -0.851476 0.795283 0.438161 -0.854323 
0.815246 0.404719 -0.856988 0.835921 0.371097 -0.859425 
0.857400 0.337402 -0.861588 0.879773 0.303739 -0.863429 
0.903133 0.270212 -0.864903 0.927572 0.236929 -0.865963 
0.953182 0.203993 -0.866562 0.980054 0.171510 -0.866655 
1.008281 0.139586 -0.866195 -0.999212 0.038271 -0.794680 
-0.910485 0.055079 -0.802141 -0.829023 0.072201 -0.808714 
-0.754482 0.089626 -0.814445 -0.686520 0.107342 -0.819384 
-0.624795 0.125338 -0.823575 -0.568965 0.143601 -0.827066 
-0.518687 0.162122 -0.829904 -0.473619 0.180887 -0.832136 
-0.433419 0.199886 -0.833809 -0.397745 0.219106 -0.834970 
-0.366253 0.238537 -0.835665 -0.338602 0.258167 -0.835943 
-0.314449 0.277984 -0.835849 -0.293452 0.297977 -0.835430 
-0.275270 0.318134 -0.834735 -0.259558 0.338444 -0.833808 
-0.245976 0.358895 -0.832699 -0.234180 0.379475 -0.831452 
-0.223829 0.400174 -0.830116 -0.214580 0.420979 -0.828738 
-0.206091 0.441878 -0.827363 -0.198019 0.462862 -0.826040 
-0.190029 0.483916 -0.824814 -0.181934 0.505012 -0.823701 
-0.173697 0.526105 -0.822689 -0.165288 0.547147 -0.821764 
-0.156677 0.568091 -0.820913 -0.147832 0.588892 -0.820121 
-0.138724 0.609503 -0.819374 -0.129321 0.629877 -0.818659 
-0.119594 0.649967 -0.817962 -0.109511 0.669727 -0.817270 
-0.099043 0.689110 -0.816567 -0.088159 0.708070 -0.815841 
-0.076828 0.726559 -0.815078 -0.065020 0.744532 -0.814263 
-0.052704 0.761941 -0.813384 -0.039850 0.778741 -0.812425 
-0.026427 0.794883 -0.811374 -0.012406 0.810323 -0.810217 
0.002245 0.825013 -0.808939 0.017556 0.838906 -0.807527 
0.033558 0.851956 -0.805967 0.050281 0.864117 -0.804245 
0.067756 0.875341 -0.802347 0.085997 0.885585 -0.800267 
0.104957 0.894813 -0.798026 0.124576 0.902994 -0.795653 
0.144789 0.910094 -0.793175 0.165536 0.916083 -0.790621 
0.186754 0.920926 -0.788020 0.208380 0.924593 -0.785400 
0.230352 0.927050 -0.782789 0.252609 0.928265 -0.780215 
0.275087 0.928207 -0.777708 0.297725 0.926841 -0.775296 
0.320461 0.924137 -0.773006 0.343231 0.920062 -0.770868 
0.365975 0.914583 -0.768910 0.388629 0.907668 -0.767159 
0.411132 0.899285 -0.765646 0.433421 0.889402 -0.764397 
0.455433 0.877985 -0.763441 0.477108 0.865003 -0.762808 
0.498382 0.850423 -0.762524 0.519193 0.834214 -0.762619 
0.539479 0.816342 -0.763121 0.559181 0.796778 -0.764057 
[...]
POINT_DATA 8281
SCALARS scalars float
LOOKUP_TABLE default
0.000000 0.000000 0.000000 0.000000 0.000000 0.000000 
0.000000 0.000000 0.000000 0.000000 0.000000 0.000000 
0.000000 0.000000 0.000000 0.000000 0.000000 0.000000 
0.000000 0.000000 0.000000 0.000000 0.000000 0.000000 
0.000000 0.000000 0.000000 0.000000 0.000000 0.000000 
0.000000 0.000000 0.000000 0.000000 0.000000 0.000000 
0.000000 0.000000 0.000000 0.000000 0.000000 0.000000 
0.000000 0.000000 0.000000 0.000000 0.000000 0.000000 
0.000000 0.000000 0.000000 0.000000 0.000000 0.000000 
0.000000 0.000000 0.000000 0.000000 0.000000 0.000000 
0.000000 0.000000 0.000000 0.000000 0.000000 0.000000 
0.000000 0.000000 0.000000 0.000000 0.000000 0.000000 
0.000000 0.000000 0.000000 0.000000 0.000000 0.000000 
0.000000 0.000000 0.000000 0.000000 0.000000 0.000000 
0.000000 0.000000 0.000000 0.000000 0.000000 0.000000 
0.000000 0.000000 0.564804 0.615811 0.665841 0.722293 
0.792310 0.882666 0.999662 1.148738 1.333568 1.554404 
1.805669 2.073217 2.332390 2.548691 2.682662 2.698721 
2.574831 2.308320 1.915021 1.422953 0.864561 0.271177 
-0.081096 -0.183495 -0.286281 -0.390538 -0.497311 -0.607606 
-0.722385 -0.842544 -0.968893 -1.102116 -1.242713 -1.390938 
-1.546705 -1.709483 -1.878180 -2.051021 -2.225440 -2.398014 
-2.564466 -2.719773 -2.858403 -2.974708 -3.063421 -3.008252 
-2.967250 -2.939388 -2.923291 -2.917320 -2.919621 -2.928169 
-2.940787 -2.955167 -2.968908 -2.979549 -2.984632 -2.981777 
-2.968777 -2.943709 -2.905044 -2.851753 -2.783388 -2.700130 
-2.602791 -2.492769 -2.371959 -2.115843 -1.757944 -1.439443 
-1.160371 -0.917832 -0.707596 -0.525075 -0.365862 -0.225986 
-0.102004 0.009001 0.109456 0.201363 0.286363 0.365793 
0.440739 0.512081 0.580511 0.646542 0.710469 0.772307 
0.831668 0.000000 0.000000 0.656539 0.710117 0.761735 
0.819240 0.890366 0.982554 1.102805 1.257242 1.450097 
1.681854 1.946524 2.228522 2.500500 2.724276 2.856689 
2.859888 2.712097 2.413349 1.983353 1.453580 0.858516 
0.230084 -0.138741 -0.240608 -0.343260 -0.447710 -0.554927 
-0.665828 -0.781269 -0.902021 -1.028741 -1.161932 -1.301886 
-1.448616 -1.601771 -1.760548 -1.923592 -2.088909 -2.253803 
-2.414861 -2.568012 -2.708678 -2.832036 -2.933381 -3.008561 
-2.954491 -2.916493 -2.893309 -2.883400 -2.885011 -2.896198 
-2.914843 -2.938652 -2.965159 -2.991736 -3.015624 -3.033983 
-3.043981 -3.042902 -3.028291 -2.998104 -2.950869 -2.885811 
-2.802946 -2.703103 -2.587883 -2.459548 -2.187808 -1.810933 
-1.477317 -1.186128 -0.933612 -0.714798 -0.524506 -0.357864 
-0.210547 -0.078832 0.040408 0.149767 0.251361 0.346893 
0.437700 0.524787 0.608846 0.690248 0.769011 0.844744 
0.916555 0.982938 0.000000 0.000000 0.748990 0.806749 
0.861298 0.920849 0.993702 1.087986 1.211454 1.370992 
1.571488 1.813784 2.091603 2.388019 2.673011 2.904624 
3.035851 3.026463 2.854944 2.524101 2.057557 1.490182 
0.858390 0.194550 -0.191885 -0.294604 -0.398419 -0.504296 
-0.613144 -0.725805 -0.843040 -0.965501 -1.093701 -1.227965 
-1.368375 -1.514701 -1.666327 -1.822174 -1.980621 -2.139451 
-2.295834 -2.446356 -2.587128 -2.713975 -2.822714 -2.909496 
-2.971174 -2.916415 -2.879427 -2.858758 -2.852755 -2.859601 
-2.877328 -2.903803 -2.936704 -2.973501 -3.011446 -3.047576 
-3.078756 -3.101752 -3.113355 -3.110543 -3.090671 -3.051687 
-2.992317 -2.912223 -2.812069 -2.693511 -2.559074 -2.272936 
-1.877334 -1.527776 -1.223023 -0.958786 -0.729570 -0.529729 
-0.354000 -0.197730 -0.056928 0.071757 0.191097 0.303343 
0.410278 0.513250 0.613186 0.710573 0.805423 0.897196 
0.984712 1.066036 1.138390 0.000000 0.000000 0.841565 
0.905430 0.964609 1.027552 1.103065 1.199964 1.326792 
1.491265 1.699040 1.951448 2.242086 2.552822 2.851022 
3.090899 3.221432 3.199853 3.004823 2.641934 2.138752 
1.533530 0.864539 0.164513 -0.240867 -0.345959 -0.452369 
-0.561035 -0.672823 -0.788515 -0.908784 -1.034173 -1.165048 
-1.301556 -1.443563 -1.590592 -1.741753 -1.895683 -2.050488 
-2.203729 -2.352439 -2.493200 -2.622300 -2.735949 -2.830567 
-2.903102 -2.951335 -2.894360 -2.856685 -2.836689 -2.832626 
-2.842656 -2.864828 -2.897051 -2.937052 -2.982328 -3.030111 
-3.077345 -3.120702 -3.156637 -3.181498 -3.191696 -3.183931 
-3.155443 -3.104286 -3.029549 -2.931508 -2.811670 -2.672672 
-2.373322 -1.958991 -1.592329 -1.272202 -0.994148 -0.752381 
-0.540926 -0.354204 -0.187269 -0.035871 0.103562 0.233986 
0.357789 0.476830 0.592462 0.705510 0.816226 0.924213 
1.028309 1.126470 1.215649 1.291746 0.000000 0.000000 
0.933126 1.005320 1.071208 1.139306 1.218822 1.319211 
1.449824 1.619267 1.834062 2.096186 2.399288 2.724215 
3.035827 3.284470 3.414933 3.381672 3.163365 2.768346 
2.228150 1.584438 0.877330 0.139886 -0.286069 -0.395220 
-0.505817 -0.618790 -0.734978 -0.855113 -0.979792 -1.109446 
-1.244294 -1.384298 -1.529099 -1.677960 -1.829703 -1.982670 
-2.134689 -2.283095 -2.424788 -2.556358 -2.674277 -2.775145 
-2.855974 -2.914477 -2.949312 -2.888768 -2.848930 -2.828007 
-2.824173 -2.835576 -2.860311 -2.896373 -2.941597 -2.993583 
-3.049642 -3.106736 -3.161464 -3.210079 -3.248576 -3.272846 
-3.278907 -3.263201 -3.222931 -3.156380 -3.063171 -2.944397 
-2.802596 -2.491297 -2.058096 -1.672873 -1.335185 -1.040816 
-0.783951 -0.558451 -0.358505 -0.178920 -0.015210 0.136411 
0.279069 0.415275 0.546945 0.675399 0.801319 0.924670 
1.044587 1.159240 1.265691 1.359798 1.436233 0.000000 
0.000000 1.021906 1.104880 1.179921 1.255388 1.340726 
1.445943 1.581168 1.755927 1.977707 2.249275 2.564544 
2.903563 3.228847 3.486873 3.618041 3.573724 3.332375 
2.904975 2.327059 1.643774 0.897140 0.120561 -0.327934 
-0.443026 -0.559593 -0.678576 -0.800804 -0.926965 -1.057585 
-1.192980 -1.333218 -1.478062 -1.626911 -1.778748 -1.932094 
-2.084977 -2.234942 -2.379099 -2.514228 -2.636950 -2.743947 
-2.832230 -2.899415 -2.943974 -2.965407 -2.900046 -2.856709 
-2.833428 -2.828292 -2.839442 -2.865032 -2.903172 -2.951845 
-3.008822 -3.071577 -3.137201 -3.202342 -3.263186 -3.315495 
-3.354723 -3.376236 -3.375620 -3.349075 -3.293835 -3.208560 
-3.093604 -2.951113 -2.629378 -2.177172 -1.771692 -1.413870 
-1.100224 -0.825241 -0.582810 -0.367003 -0.172441 0.005563 
0.170982 0.327090 0.476488 0.621105 0.762174 0.900172 
1.034713 1.164416 1.286762 1.397962 1.492914 1.565305 
0.000000 0.000000 1.105453 1.201750 1.288667 1.374141 
1.467636 1.579559 1.720734 1.901607 2.130688 2.411685 
2.738995 3.092135 3.431487 3.699691 3.832541 3.777951 
3.513803 3.053582 2.436876 1.712450 0.924351 0.106389 
-0.366978 -0.490123 -0.614668 -0.741584 -0.871697 -1.005661 
-1.143927 -1.286693 -1.433860 -1.584972 -1.739167 -1.895123 
-2.051033 -2.204599 -2.353076 -2.493356 -2.622126 -2.736070 
-2.832129 -2.907768 -2.961238 -2.991776 -2.999714 -2.928317 
-2.880212 -2.853234 -2.845377 -2.854771 -2.879632 -2.918195 
-2.968624 -3.028912 -3.096769 -3.169512 -3.243968 -3.316396 
-3.382473 -3.437348 -3.475814 -3.492599 -3.482789 -3.442335 
-3.368594 -3.260785 -3.120269 -2.790105 -2.318968 -1.891405 
-1.510502 -1.174114 -0.877433 -0.614639 -0.379840 -0.167560 
0.027036 0.208066 0.378913 0.542219 0.699865 0.852935 
1.001626 1.145147 1.281580 1.407752 1.519160 1.609996 
1.673357 0.000000 0.000000 1.180637 1.292681 1.394301 
1.492733 1.597191 1.718260 1.867319 2.055665 2.292861 
2.583677 2.923225 3.290781 3.644858 3.924330 4.060146 
3.996294 3.709645 3.215990 2.559043 1.791396 0.959323 
0.097163 -0.403814 -0.537384 -0.672170 -0.809182 -0.949253 
-1.093004 -1.240802 -1.392717 -1.548459 -1.707331 -1.868174 
-2.029332 -2.188647 -2.343479 -2.490789 -2.627275 -2.749565 
-2.854466 -2.939240 -3.001869 -3.041288 -3.057526 -3.051738 
-2.973046 -2.918894 -2.886902 -2.874950 -2.881143 -2.903754 
-2.941151 -2.991695 -3.053632 -3.124969 -3.203339 -3.285863 
-3.369024 -3.448583 -3.519555 -3.576302 -3.612761 -3.622855 
-3.601058 -3.543073 -3.446518 -3.311458 -2.975696 -2.486229 
-2.034813 -1.627584 -1.264465 -0.941887 -0.654667 -0.397167 
-0.163947 0.049897 0.248569 0.435503 0.613324 0.783804 
0.947805 1.105196 1.254752 1.394047 1.519380 1.625768 
1.707067 1.756278 0.000000 0.000000 1.243723 1.373538 
1.492517 1.606942 1.725481 1.858628 2.018098 2.215912 
2.462650 2.764235 3.116705 3.499415 3.869315 4.161611 
4.302151 4.230433 3.921752 3.393945 2.694952 1.881488 
1.002347 0.092582 -0.439168 -0.585809 -0.733362 -0.882883 
-1.035211 -1.190927 -1.350305 -1.513259 -1.679282 -1.847398 
-2.016117 -2.183413 -2.346749 -2.503132 -2.649241 -2.781612 
-2.896876 -2.992040 -3.064775 -3.113664 -3.138388 -3.139800 
-3.119874 -3.032521 -2.970972 -2.932605 -2.915163 -2.916710 
-2.935567 -2.970226 -3.019251 -3.081165 -3.154315 -3.236718 
-3.325896 -3.418704 -3.511170 -3.598385 -3.674479 -3.732757 
-3.766022 -3.767149 -3.729867 -3.649671 -3.524699 -3.187448 
-2.681237 -2.204579 -1.767653 -1.373349 -1.020032 -0.703639 
-0.419095 -0.161186 0.074934 0.293476 0.497862 0.690637 
0.873408 1.046774 1.210258 1.362238 1.499894 1.619217 
1.715080 1.781456 1.811764 0.000000 0.000000 1.290546 
1.439422 1.577878 1.711057 1.846804 1.995221 2.168094 
2.377962 2.636327 2.950296 3.317019 3.716256 4.103734 
4.411127 4.558885 4.481333 4.151475 3.588853 2.845758 
1.983425 1.053561 0.092204 -0.473889 -0.636495 -0.799575 
-0.964227 -1.131291 -1.301291 -1.474383 -1.650294 -1.828259 
-2.006981 -2.184591 -2.358662 -2.526250 -2.684013 -2.828374 
-2.955765 -3.062908 -3.147116 -3.206578 -3.240579 -3.249618 
-3.235404 -3.200727 -3.103198 -3.032785 -2.986593 -2.962205 
-2.957623 -2.971193 -3.001522 -3.047375 -3.107555 -3.180774 
-3.265487 -3.359707 -3.460793 -3.565230 -3.668418 -3.764526 
-3.846471 -3.906112 -3.934727 -3.923831 -3.866283 -3.757538 
-3.424750 -2.905015 -2.402637 -1.932868 -1.502650 -1.113187 
-0.762202 -0.445632 -0.158776 0.102987 0.343761 0.566886 
0.774783 0.968869 1.149485 1.315865 1.466115 1.597241 
1.705238 1.785254 1.831848 1.839319 0.000000 0.000000 
1.316775 1.484933 1.644023 1.797970 1.953595 2.120328 
2.309731 2.534611 2.807230 3.135849 3.518884 3.936816 
4.344520 4.670292 4.828855 4.748525 4.399101 3.801354 
3.012073 2.097513 1.112825 0.095394 -0.508928 -0.690540 
-0.872036 -1.054543 -1.238879 -1.425486 -1.614365 -1.805009 
-1.996351 -2.186715 -2.373813 -2.554777 -2.726254 -2.884564 
-3.025936 -3.146787 -3.244048 -3.315475 -3.359909 -3.377444 
-3.369470 -3.338576 -3.288343 -3.178979 -3.098120 -3.042567 
-3.009709 -2.997462 -3.004178 -3.028558 -3.069547 -3.126226 
-3.197676 -3.282819 -3.380224 -3.487869 -3.602874 -3.721198 
-3.837364 -3.944257 -4.033108 -4.093787 -4.115527 -4.088126 
-4.003551 -3.683641 -3.156088 -2.629215 -2.124299 -1.653574 
-1.222244 -0.830731 -0.476628 -0.156157 0.134824 0.400180 
0.643100 0.865870 1.069747 1.254909 1.420453 1.564452 
1.684060 1.775678 1.835168 1.858100 1.840000 0.000000 
0.000000 1.318265 1.504579 1.684080 1.859538 2.036663 
2.224012 2.432662 2.675424 2.965117 3.311086 3.713124 
4.152744 4.584373 4.933123 5.107601 5.029097 4.663013 
4.030685 3.193506 2.223371 1.179552 0.101281 -0.545263 
-0.748845 -0.951547 -1.154500 -1.358462 -1.563751 -1.770163 
-1.976906 -2.182544 -2.384975 -2.581447 -2.768634 -2.942782 
-3.099932 -3.236206 -3.348140 -3.433033 -3.489244 -3.516412 
-3.515548 -3.488989 -3.440205 -3.373517 -3.250588 -3.157658 
-3.091177 -3.048314 -3.026867 -3.025165 -3.041973 -3.076393 
-3.127758 -3.195503 -3.279022 -3.377473 -3.489537 -3.613117 
-3.744977 -3.880336 -4.012483 -4.132507 -4.229293 -4.289995 
-4.301157 -4.250542 -3.954909 -3.428708 -2.881372 -2.340816 
-1.825877 -1.347185 -0.909083 -0.511718 -0.152832 0.170894 
0.462910 0.726210 0.962988 1.174470 1.360867 1.521421 
1.654525 1.757889 1.828756 1.864110 1.860859 1.815932 
0.000000 0.000000 1.291454 1.493300 1.691297 1.887258 
2.085839 2.294651 2.524112 2.786825 3.095975 3.461908 
3.885894 4.350809 4.811086 5.188910 5.386360 5.316453 
4.938650 4.273859 3.388082 2.359556 1.252532 0.108752 
-0.583721 -0.811758 -1.037963 -1.263417 -1.488775 -1.714171 
-1.939136 -2.162525 -2.382479 -2.596419 -2.801102 -2.992753 
-3.167267 -3.320501 -3.448614 -3.548437 -3.617821 -3.655906 
-3.663272 -3.641934 -3.595195 -3.527367 -3.443421 -3.305305 
-3.198791 -3.119937 -3.065652 -3.033582 -3.021998 -3.029696 
-3.055893 -3.100132 -3.162173 -3.241851 -3.338911 -3.452776 
-3.582239 -3.725068 -3.877515 -4.033762 -4.185372 -4.320928 
-4.426076 -4.484324 -4.478831 -4.221975 -3.710665 -3.151028 
-2.577538 -2.016776 -1.486423 -0.996303 -0.550341 -0.148623 
0.210865 0.530953 0.814425 1.063516 1.279659 1.463432 
1.614621 1.732382 1.815439 1.862284 1.871341 1.841032 
1.769709 0.000000 0.000000 1.233761 1.447052 1.659824 
1.873222 2.091049 2.320044 2.569931 2.852995 3.182674 
3.570276 4.018688 4.512541 5.006846 5.421246 5.650918 
5.599152 5.217450 4.524826 3.591645 2.503221 1.329811 
0.116555 -0.624667 -0.878555 -1.129455 -1.378342 -1.625701 
-1.871419 -2.114692 -2.353963 -2.586896 -2.810406 -3.020768 
-3.213806 -3.385166 -3.530670 -3.646703 -3.730598 -3.780963 
-3.797887 -3.782998 -3.739352 -3.671184 -3.583549 -3.481928 
-3.327384 -3.206134 -3.113799 -3.046989 -3.003160 -2.980487 
-2.977746 -2.994227 -3.029629 -3.083973 -3.157485 -3.250452 
-3.363021 -3.494916 -3.645042 -3.810961 -3.988208 -4.169520 
-4.344068 -4.496968 -4.609477 -4.660366 -4.459198 -3.981085 
-3.422750 -2.823951 -2.219587 -1.635999 -1.090334 -0.591870 
-0.144141 0.252927 0.601290 0.903559 1.162239 1.379342 
1.556260 1.693815 1.792411 1.852204 1.873259 1.855613 
1.799222 1.703755 0.000000 0.000000 1.143920 1.363352 
1.585518 1.811231 2.043725 2.289072 2.556416 2.857760 
3.206800 3.615872 4.089722 4.615252 5.148813 5.608154 
5.881357 5.860398 5.486286 4.773998 3.797567 2.650011 
1.408786 0.123568 -0.667546 -0.946794 -1.221703 -1.493083 
-1.761183 -2.025577 -2.285067 -2.537634 -2.780440 -3.009905 
-3.221875 -3.411875 -3.575461 -3.708616 -3.808172 -3.872181 
-3.900190 -3.893356 -3.854397 -3.787373 -3.697337 -3.589926 
-3.470944 -3.299422 -3.162925 -3.056590 -2.976688 -2.920445 
-2.885896 -2.871757 -2.877323 -2.902390 -2.947163 -3.012174 
-3.098170 -3.205948 -3.336123 -3.488774 -3.662928 -3.855844 
-4.062077 -4.272377 -4.472629 -4.643250 -4.759719 -4.631675 
-4.209169 -3.671950 -3.062140 -2.422377 -1.788824 -1.187858 
-0.635965 -0.141517 0.292817 0.667817 0.985993 1.250445 
1.464222 1.630052 1.750299 1.827045 1.862197 1.857551 
1.814771 1.735235 1.619747 0.000000 0.000000 1.022209 
1.241699 1.466657 1.697863 1.938296 2.193647 2.472702 
2.787350 3.151693 3.579285 4.077108 4.635025 5.211769 
5.724241 6.053633 6.079107 5.728161 5.008764 3.997196 
2.794527 1.486686 0.129309 -0.710348 -1.011762 -1.307341 
-1.597678 -1.882742 -2.161743 -2.433055 -2.694183 -2.941803 
-3.171902 -3.380002 -3.561494 -3.712038 -3.828001 -3.906877 
-3.947618 -3.950824 -3.918755 -3.855163 -3.764975 -3.653872 
-3.527853 -3.392823 -3.204723 -3.053329 -2.933253 -2.840391 
-2.771706 -2.725050 -2.699029 -2.692891 -2.706450 -2.740011 
-2.794309 -2.870430 -2.969699 -3.093504 -3.243015 -3.418739 
-3.619841 -3.843165 -4.081936 -4.324218 -4.551476 -4.737944 
-4.697883 -4.355270 -3.864717 -3.266027 -2.607229 -1.934344 
-1.284483 -0.683232 -0.145366 0.322732 0.720295 1.049802 
1.315291 1.521317 1.672421 1.772916 1.826844 1.837988 
1.809856 1.745594 1.647798 1.518232 0.000000 0.000000 
0.870536 1.083799 1.304384 1.533268 1.773451 2.030529 
2.313209 2.633517 3.006198 3.446333 3.963619 4.551736 
5.173130 5.745411 6.143729 6.233338 5.924951 5.215646 
4.181576 2.931674 1.561591 0.134641 -0.749220 -1.066410 
-1.376217 -1.679009 -1.974453 -2.261391 -2.537773 -2.800662 
-3.046321 -3.270415 -3.468304 -3.635433 -3.767776 -3.862285 
-3.917280 -3.932705 -3.910223 -3.853112 -3.765995 -3.654438 
-3.524501 -3.382288 -3.233579 -3.030308 -2.865270 -2.732520 
-2.627553 -2.547041 -2.488621 -2.450745 -2.432557 -2.433821 
-2.454851 -2.496474 -2.559979 -2.647053 -2.759679 -2.899933 
-3.069656 -3.269879 -3.499935 -3.756121 -4.029900 -4.305787 
-4.559498 -4.616050 -4.375720 -3.960824 -3.402952 -2.751070 
-2.059196 -1.375514 -0.736140 -0.163761 0.330477 0.743769 
1.078526 1.339943 1.534397 1.668527 1.748768 1.781158 
1.771257 1.724081 1.644009 1.534630 1.398546 0.000000 
0.000000 0.692391 0.893558 1.102827 1.321512 1.552831 
1.802531 2.079494 2.396144 2.768147 3.212435 3.741940 
4.355071 5.019511 5.655615 6.134148 6.306129 6.062323 
5.384279 4.344523 3.058904 1.633890 0.142451 -0.778556 
-1.102224 -1.417044 -1.723192 -2.020067 -2.306181 -2.579118 
-2.835582 -3.071547 -3.282508 -3.463843 -3.611242 -3.721169 
-3.791296 -3.820829 -3.810686 -3.763478 -3.683308 -3.575412 
-3.445719 -3.300385 -3.145375 -2.986135 -2.769886 -2.593146 
-2.449401 -2.333732 -2.242500 -2.173106 -2.123812 -2.093616 
-2.082166 -2.089707 -2.117047 -2.165540 -2.237063 -2.333972 
-2.459000 -2.615050 -2.804779 -3.029890 -3.289938 -3.580538 
-3.890909 -4.201065 -4.353795 -4.231878 -3.921003 -3.438819 
-2.829042 -2.149391 -1.457425 -0.799997 -0.208718 0.299496 
0.719138 1.052227 1.305009 1.485638 1.602770 1.664803 
1.679522 1.653947 1.594271 1.505813 1.392965 1.259143 
0.000000 0.000000 0.492672 0.676865 0.868863 1.070384 
1.284990 1.518741 1.780900 2.084503 2.446358 2.885524 
3.418591 4.049502 4.752685 5.453551 6.020883 6.292173 
6.135649 5.512251 4.486303 3.178734 1.707651 0.157907 
-0.791880 -1.111211 -1.420443 -1.719634 -2.007983 -2.283749 
-2.544249 -2.785954 -3.004695 -3.195966 -3.355333 -3.478884 
-3.563684 -3.608163 -3.612375 -3.578080 -3.508629 -3.408680 
-3.283795 -3.139976 -2.983222 -2.819152 -2.652730 -2.425977 
-2.239722 -2.086878 -1.962107 -1.861455 -1.782072 -1.722010 
-1.680085 -1.655787 -1.649222 -1.661091 -1.692690 -1.745921 
-1.823304 -1.927956 -2.063504 -2.233857 -2.442719 -2.692681 
-2.983662 -3.310513 -3.659756 -3.898694 -3.901818 -3.717920 
-3.346960 -2.820751 -2.194162 -1.529771 -0.883369 -0.295449 
0.210553 0.625532 0.950321 1.191550 1.358575 1.461523 
1.510224 1.513697 1.479964 1.416013 1.327839 1.220523 
1.098357 0.000000 0.000000 0.277432 0.441203 0.611590 
0.790736 0.982613 1.193703 1.433777 1.716622 2.060323 
2.486204 3.014737 3.655932 4.392179 5.156191 5.817664 
6.202313 6.154189 5.608573 4.616154 3.300232 1.791076 
0.187883 -0.783419 -1.088458 -1.382415 -1.665305 -1.936208 
-2.193222 -2.433510 -2.653445 -2.848866 -3.015421 -3.149005 
-3.246201 -3.304716 -3.323704 -3.303950 -3.247862 -3.159287 
-3.043170 -2.905128 -2.750998 -2.586428 -2.416552 -2.245769 
-2.010659 -1.816771 -1.656454 -1.523961 -1.415022 -1.326534 
-1.256329 -1.203025 -1.165922 -1.144944 -1.140623 -1.154107 
-1.187198 -1.242399 -1.322970 -1.432943 -1.577062 -1.760538 
-1.988472 -2.264709 -2.589814 -2.957915 -3.266078 -3.390850 
-3.347752 -3.118603 -2.718042 -2.190485 -1.596705 -0.997187 
-0.439730 0.045482 0.444640 0.756024 0.985329 1.141930 
1.236424 1.279237 1.279956 1.247091 1.188076 1.109393 
1.016776 0.915509 0.000000 0.000000 0.053562 0.195160 
0.341602 0.495469 0.661183 0.845714 1.059412 1.316876 
1.637489 2.044809 2.563154 3.208736 3.972635 4.796721 
5.554591 6.062789 6.140695 5.693324 4.751769 3.438230 
1.895408 0.239577 -0.749764 -1.033997 -1.306351 -1.566838 
-1.814470 -2.047261 -2.262318 -2.456039 -2.624402 -2.763341 
-2.869180 -2.939059 -2.971322 -2.965780 -2.923809 -2.848285 
-2.743334 -2.613969 -2.465667 -2.303943 -2.133986 -1.960381 
-1.786945 -1.544783 -1.344392 -1.177572 -1.038181 -0.921646 
-0.824614 -0.744702 -0.680325 -0.630585 -0.595208 -0.574526 
-0.569493 -0.581733 -0.613622 -0.668388 -0.750215 -0.864318 
-1.016917 -1.214985 -1.465557 -1.774268 -2.142730 -2.500770 
-2.736227 -2.837278 -2.770509 -2.531048 -2.146163 -1.666837 
-1.151966 -0.653393 -0.207489 0.166121 0.461369 0.681138 
0.833179 0.927239 0.973345 0.980939 0.958555 0.913804 
0.853546 0.784180 0.712071 0.000000 0.000000 -0.171542 
-0.052111 0.070174 0.198360 0.337354 0.494647 0.681198 
0.912402 1.208848 1.596121 2.102071 2.748830 3.536325 
4.416862 5.270733 5.908511 6.125558 5.792732 4.915272 
3.610145 2.032552 0.318919 -0.690640 -0.952736 -1.202113 
-1.438765 -1.661646 -1.868729 -2.057140 -2.223399 -2.363730 
-2.474452 -2.552396 -2.595298 -2.602129 -2.573291 -2.510652 
-2.417417 -2.297850 -2.156906 -1.999817 -1.831709 -1.657282 