# vtk DataFile Version 1.0
vtk output
ASCII
DATASET POLYDATA
POINTS 8281 float
-0.993243 -0.010200 -1.007160 -0.950487 0.009153 -1.006176 
-0.908620 0.028075 -1.005250 -0.867627 0.046565 -1.004382 
-0.827491 0.064623 -1.003569 -0.788197 0.082249 -1.002811 
-0.749730 0.099441 -1.002105 -0.712074 0.116200 -1.001450 
-0.675213 0.132525 -1.000845 -0.639132 0.148415 -1.000288 
-0.603816 0.163870 -0.999778 -0.569249 0.178890 -0.999313 
-0.535417 0.193474 -0.998893 -0.502303 0.207621 -0.998515 
-0.469893 0.221332 -0.998178 -0.438172 0.234606 -0.997881 
-0.407125 0.247443 -0.997622 -0.376736 0.259842 -0.997400 
-0.346991 0.271803 -0.997214 -0.317875 0.283326 -0.997062 
-0.289373 0.294410 -0.996943 -0.261470 0.305056 -0.996855 
-0.234152 0.315262 -0.996798 -0.207404 0.325030 -0.996770 
-0.181211 0.334358 -0.996769 -0.155559 0.343246 -0.996795 
-0.130433 0.351695 -0.996846 -0.105819 0.359703 -0.996921 
-0.081702 0.367272 -0.997018 -0.058068 0.374400 -0.997137 
-0.034903 0.381088 -0.997276 -0.012193 0.387336 -0.997433 
0.010077 0.393143 -0.997608 0.031921 0.398510 -0.997800 
0.053353 0.403436 -0.998007 0.074386 0.407922 -0.998227 
0.095035 0.411967 -0.998461 0.115314 0.415571 -0.998706 
0.135237 0.418735 -0.998962 0.154817 0.421459 -0.999227 
0.174068 0.423742 -0.999500 0.193004 0.425584 -0.999781 
0.211638 0.426987 -1.000067 0.229985 0.427949 -1.000358 
0.248057 0.428472 -1.000653 0.265868 0.428554 -1.000951 
0.283431 0.428197 -1.001250 0.300761 0.427401 -1.001549 
0.317869 0.426165 -1.001849 0.334770 0.424490 -1.002146 
0.351477 0.422376 -1.002441 0.368003 0.419824 -1.002732 
0.384360 0.416833 -1.003019 0.400563 0.413405 -1.003300 
0.416623 0.409538 -1.003574 0.432554 0.405235 -1.003840 
0.448370 0.400494 -1.004098 0.464081 0.395316 -1.004347 
0.479703 0.389702 -1.004584 0.495246 0.383652 -1.004810 
0.510724 0.377167 -1.005024 0.526150 0.370246 -1.005224 
0.541535 0.362891 -1.005411 0.556894 0.355101 -1.005581 
0.572237 0.346878 -1.005736 0.587577 0.338221 -1.005874 
0.602928 0.329131 -1.005994 0.618300 0.319610 -1.006095 
0.633707 0.309656 -1.006176 0.649160 0.299271 -1.006237 
0.664671 0.288456 -1.006277 0.680254 0.277211 -1.006295 
0.695919 0.265536 -1.006290 0.711679 0.253432 -1.006261 
0.727545 0.240900 -1.006207 0.743530 0.227941 -1.006129 
0.759646 0.214555 -1.006024 0.775903 0.200743 -1.005892 
0.792314 0.186505 -1.005733 0.808891 0.171842 -1.005546 
0.825644 0.156756 -1.005329 0.842586 0.141246 -1.005083 
0.859728 0.125314 -1.004806 0.877082 0.108960 -1.004498 
0.894659 0.092186 -1.004158 0.912470 0.074991 -1.003785 
0.930526 0.057377 -1.003379 0.948839 0.039345 -1.002939 
0.967420 0.020895 -1.002465 0.986280 0.002029 -1.001955 
1.005430 -0.017253 -1.001410 -0.992953 -0.006152 -0.971483 
-0.950215 0.010576 -0.971989 -0.908369 0.026977 -0.972461 
-0.867399 0.043051 -0.972901 -0.827288 0.058797 -0.973309 
-0.788021 0.074212 -0.973687 -0.749583 0.089297 -0.974037 
-0.711956 0.104050 -0.974360 -0.675126 0.118469 -0.974656 
-0.639076 0.132553 -0.974927 -0.603792 0.146301 -0.975175 
-0.569258 0.159712 -0.975400 -0.535457 0.172784 -0.975604 
-0.502376 0.185517 -0.975788 -0.469998 0.197907 -0.975953 
-0.438309 0.209955 -0.976099 -0.407292 0.221659 -0.976228 
-0.376933 0.233017 -0.976342 -0.347218 0.244027 -0.976440 
-0.318129 0.254689 -0.976524 -0.289654 0.265000 -0.976594 
-0.261777 0.274959 -0.976652 -0.234482 0.284564 -0.976699 
-0.207756 0.293815 -0.976735 -0.181583 0.302708 -0.976761 
-0.155950 0.311243 -0.976778 -0.130840 0.319417 -0.976786 
-0.106241 0.327230 -0.976787 -0.082136 0.334678 -0.976780 
-0.058513 0.341761 -0.976767 -0.035356 0.348476 -0.976748 
-0.012651 0.354822 -0.976724 0.009615 0.360797 -0.976695 
0.031458 0.366399 -0.976663 0.052891 0.371625 -0.976626 
0.073928 0.376475 -0.976586 0.094584 0.380945 -0.976544 
0.114871 0.385035 -0.976499 0.134805 0.388742 -0.976453 
0.154398 0.392063 -0.976404 0.173665 0.394997 -0.976355 
0.192619 0.397542 -0.976304 0.211273 0.399696 -0.976253 
0.229642 0.401456 -0.976201 0.247739 0.402820 -0.976149 
0.265577 0.403786 -0.976097 0.283169 0.404351 -0.976045 
0.300530 0.404514 -0.975993 0.317671 0.404273 -0.975942 
0.334607 0.403624 -0.975891 0.351349 0.402565 -0.975840 
0.367913 0.401095 -0.975789 0.384309 0.399210 -0.975739 
0.400552 0.396908 -0.975690 0.416654 0.394187 -0.975640 
0.432628 0.391044 -0.975591 0.448487 0.387477 -0.975541 
0.464243 0.383484 -0.975492 0.479909 0.379061 -0.975442 
0.495497 0.374206 -0.975391 0.511021 0.368916 -0.975339 
0.526491 0.363189 -0.975287 0.541922 0.357022 -0.975233 
0.557324 0.350413 -0.975177 0.572711 0.343358 -0.975118 
0.588094 0.335855 -0.975057 0.603486 0.327902 -0.974994 
0.618899 0.319494 -0.974926 0.634344 0.310630 -0.974855 
0.649833 0.301307 -0.974779 0.665379 0.291521 -0.974698 
0.680994 0.281271 -0.974612 0.696688 0.270552 -0.974519 
0.712473 0.259362 -0.974419 0.728362 0.247698 -0.974312 
0.744366 0.235557 -0.974196 0.760496 0.222936 -0.974072 
0.776764 0.209831 -0.973938 0.793181 0.196241 -0.973793 
0.809758 0.182161 -0.973637 0.826507 0.167588 -0.973469 
0.843439 0.152519 -0.973288 0.860564 0.136952 -0.973093 
0.877895 0.120882 -0.972884 0.895442 0.104307 -0.972658 
0.913215 0.087223 -0.972416 0.931226 0.069627 -0.972156 
0.949486 0.051516 -0.971877 0.968006 0.032886 -0.971578 
0.986795 0.013734 -0.971258 1.005865 -0.005944 -0.970916 
-0.992750 -0.002123 -0.936237 -0.950032 0.012149 -0.938139 
-0.908208 0.026192 -0.939919 -0.867263 0.040006 -0.941583 
-0.827179 0.053589 -0.943133 -0.787942 0.066938 -0.944575 
-0.749534 0.080052 -0.945912 -0.711941 0.092930 -0.947148 
-0.675145 0.105568 -0.948286 -0.639130 0.117966 -0.949332 
-0.603882 0.130121 -0.950287 -0.569384 0.142030 -0.951156 
-0.535621 0.153692 -0.951943 -0.502576 0.165105 -0.952651 
-0.470235 0.176265 -0.953283 -0.438582 0.187171 -0.953842 
-0.407601 0.197820 -0.954333 -0.377277 0.208209 -0.954758 
-0.347595 0.218336 -0.955120 -0.318540 0.228198 -0.955423 
-0.290096 0.237792 -0.955669 -0.262249 0.247116 -0.955861 
-0.234983 0.256166 -0.956003 -0.208284 0.264940 -0.956097 
-0.182136 0.273435 -0.956146 -0.156525 0.281646 -0.956153 
-0.131436 0.289572 -0.956119 -0.106855 0.297209 -0.956049 
-0.082767 0.304554 -0.955944 -0.059158 0.311602 -0.955806 
-0.036012 0.318352 -0.955639 -0.013317 0.324799 -0.955444 
0.008943 0.330939 -0.955224 0.030782 0.336770 -0.954980 
0.052214 0.342287 -0.954715 0.073252 0.347486 -0.954431 
0.093912 0.352364 -0.954130 0.114206 0.356917 -0.953814 
0.134149 0.361140 -0.953484 0.153755 0.365030 -0.953143 
0.173036 0.368583 -0.952791 0.192008 0.371794 -0.952431 
0.210682 0.374659 -0.952065 0.229074 0.377173 -0.951693 
0.247196 0.379334 -0.951317 0.265061 0.381135 -0.950939 
0.282683 0.382572 -0.950560 0.300076 0.383641 -0.950181 
0.317251 0.384337 -0.949803 0.334223 0.384655 -0.949427 
0.351004 0.384591 -0.949054 0.367608 0.384140 -0.948686 
0.384046 0.383296 -0.948323 0.400332 0.382055 -0.947966 
0.416479 0.380411 -0.947616 0.432499 0.378360 -0.947273 
0.448404 0.375896 -0.946939 0.464208 0.373014 -0.946613 
0.479922 0.369709 -0.946296 0.495560 0.365975 -0.945989 
0.511132 0.361806 -0.945692 0.526652 0.357198 -0.945406 
0.542132 0.352144 -0.945130 0.557583 0.346640 -0.944864 
0.573018 0.340678 -0.944609 0.588449 0.334253 -0.944366 
0.603887 0.327360 -0.944133 0.619344 0.319993 -0.943910 
0.634833 0.312144 -0.943699 0.650363 0.303810 -0.943497 
0.665948 0.294982 -0.943306 0.681599 0.285655 -0.943124 
0.697326 0.275823 -0.942952 0.713142 0.265479 -0.942788 
0.729058 0.254617 -0.942632 0.745084 0.243230 -0.942484 
0.761233 0.231312 -0.942343 0.777514 0.218856 -0.942208 
0.793940 0.205856 -0.942078 0.810521 0.192304 -0.941952 
0.827267 0.178194 -0.941830 0.844190 0.163519 -0.941711 
0.861301 0.148272 -0.941592 0.878609 0.132446 -0.941474 
0.896126 0.116033 -0.941354 0.913862 0.099027 -0.941233 
0.931828 0.081421 -0.941107 0.950033 0.063207 -0.940976 
0.968489 0.044377 -0.940839 0.987204 0.024925 -0.940693 
1.006191 0.004842 -0.940538 -0.992630 0.001880 -0.901408 
-0.949931 0.013859 -0.904613 -0.908130 0.025702 -0.907615 
-0.867211 0.037407 -0.910421 -0.827157 0.048972 -0.913038 
-0.787952 0.060394 -0.915472 -0.749579 0.071672 -0.917730 
-0.712021 0.082801 -0.919818 -0.675262 0.093781 -0.921741 
-0.639287 0.104607 -0.923508 -0.604079 0.115278 -0.925122 
-0.569621 0.125790 -0.926591 -0.535899 0.136140 -0.927920 
-0.502895 0.146325 -0.929115 -0.470595 0.156342 -0.930182 
-0.438983 0.166187 -0.931125 -0.408042 0.175857 -0.931951 
-0.377758 0.185348 -0.932665 -0.348115 0.194657 -0.933272 
-0.319097 0.203779 -0.933777 -0.290689 0.212711 -0.934185 
-0.262876 0.221449 -0.934501 -0.235643 0.229988 -0.934730 
-0.208974 0.238325 -0.934876 -0.182856 0.246455 -0.934945 
-0.157272 0.254373 -0.934940 -0.132208 0.262075 -0.934866 
-0.107649 0.269557 -0.934728 -0.083581 0.276813 -0.934530 
-0.059989 0.283838 -0.934275 -0.036858 0.290629 -0.933967 
-0.014175 0.297179 -0.933612 0.008076 0.303483 -0.933212 
0.029909 0.309536 -0.932770 0.051337 0.315333 -0.932292 
0.072375 0.320868 -0.931779 0.093037 0.326136 -0.931237 
0.113336 0.331130 -0.930667 0.133287 0.335845 -0.930072 
0.152904 0.340275 -0.929457 0.172199 0.344414 -0.928825 
0.191188 0.348256 -0.928177 0.209882 0.351794 -0.927516 
0.228296 0.355022 -0.926846 0.246443 0.357934 -0.926169 
0.264337 0.360523 -0.925488 0.281989 0.362782 -0.924804 
0.299415 0.364704 -0.924120 0.316626 0.366284 -0.923439 
0.333636 0.367512 -0.922761 0.350457 0.368384 -0.922090 
0.367102 0.368890 -0.921428 0.383584 0.369025 -0.920774 
0.399916 0.368779 -0.920133 0.416110 0.368147 -0.919504 
0.432179 0.367120 -0.918890 0.448134 0.365691 -0.918292 
0.463989 0.363851 -0.917711 0.479755 0.361593 -0.917148 
0.495445 0.358908 -0.916604 0.511071 0.355788 -0.916081 
0.526644 0.352226 -0.915578 0.542177 0.348213 -0.915098 
0.557682 0.343739 -0.914640 0.573169 0.338797 -0.914204 
0.588651 0.333378 -0.913793 0.604140 0.327473 -0.913404 
0.619646 0.321073 -0.913040 0.635182 0.314169 -0.912700 
[...]
POINT_DATA 8281
SCALARS scalars float
LOOKUP_TABLE default
0.000000 0.000000 0.000000 0.000000 0.000000 0.000000 
0.000000 0.000000 0.000000 0.000000 0.000000 0.000000 
0.000000 0.000000 0.000000 0.000000 0.000000 0.000000 
0.000000 0.000000 0.000000 0.000000 0.000000 0.000000 
0.000000 0.000000 0.000000 0.000000 0.000000 0.000000 
0.000000 0.000000 0.000000 0.000000 0.000000 0.000000 
0.000000 0.000000 0.000000 0.000000 0.000000 0.000000 
0.000000 0.000000 0.000000 0.000000 0.000000 0.000000 
0.000000 0.000000 0.000000 0.000000 0.000000 0.000000 
0.000000 0.000000 0.000000 0.000000 0.000000 0.000000 
0.000000 0.000000 0.000000 0.000000 0.000000 0.000000 
0.000000 0.000000 0.000000 0.000000 0.000000 0.000000 
0.000000 0.000000 0.000000 0.000000 0.000000 0.000000 
0.000000 0.000000 0.000000 0.000000 0.000000 0.000000 
0.000000 0.000000 0.000000 0.000000 0.000000 0.000000 
0.000000 0.000000 -2.123105 -2.398823 -2.635765 -2.810821 
-2.906163 -2.913163 -2.834074 -2.680898 -2.472090 -2.228454 
-1.969580 -1.711574 -1.466171 -1.240878 -1.039696 -0.864040 
-0.713594 -0.587024 -0.482489 -0.397993 -0.331608 -0.281602 
-0.246502 -0.225121 -0.216565 -0.220222 -0.235745 -0.263044 
-0.302268 -0.353789 -0.418199 -0.496291 -0.589056 -0.697670 
-0.823474 -0.967960 -1.132734 -1.319475 -1.529872 -1.765538 
-2.027897 -2.318033 -2.636507 -2.983126 -3.356678 -3.754640 
-4.172872 -4.605340 -5.043907 -5.478241 -5.895937 -6.282871 
-6.623862 -6.903633 -7.107996 -7.225171 -7.247028 -7.170073 
-6.995971 -6.731516 -6.388012 -5.980183 -5.524782 -5.039139 
-4.539844 -4.041714 -3.557131 -3.095734 -2.664420 -2.267580 
-1.907455 -1.584573 -1.298168 -1.046576 -0.827565 -0.638603 
-0.477063 -0.340376 -0.226133 -0.132158 -0.056551 0.002285 
0.045628 0.074428 0.089297 0.090501 0.077951 0.051181 
0.009335 0.000000 0.000000 -2.012353 -2.255886 -2.462136 
-2.611671 -2.689759 -2.689412 -2.612659 -2.469643 -2.276026 
-2.049704 -1.807867 -1.565020 -1.332087 -1.116387 -0.922133 
-0.751157 -0.603631 -0.478683 -0.374878 -0.290550 -0.224027 
-0.173770 -0.138447 -0.116971 -0.108516 -0.112513 -0.128641 
-0.156818 -0.197188 -0.250107 -0.316134 -0.396019 -0.490692 
-0.601249 -0.728936 -0.875124 -1.041278 -1.228916 -1.439544 
-1.674581 -1.935249 -2.222443 -2.536561 -2.877304 -3.243440 
-3.632549 -4.040752 -4.462465 -4.890206 -5.314500 -5.723950 
-6.105517 -6.445059 -6.728128 -6.941009 -7.071892 -7.112056 
-7.056862 -6.906407 -6.665691 -6.344247 -5.955288 -5.514499 
-5.038674 -4.544396 -4.046923 -3.559392 -3.092368 -2.653713 
-2.248712 -1.880372 -1.549820 -1.256719 -0.999676 -0.776597 
-0.584983 -0.422162 -0.285464 -0.172344 -0.080468 -0.007763 
0.047546 0.086927 0.111528 0.122178 0.119391 0.103362 
0.073975 0.030802 0.000000 0.000000 -1.874001 -2.082210 
-2.255171 -2.377118 -2.436355 -2.427513 -2.352442 -2.219520 
-2.041675 -1.833867 -1.610759 -1.385059 -1.166674 -0.962555 
-0.777008 -0.612213 -0.468808 -0.346401 -0.243993 -0.160290 
-0.093921 -0.043577 -0.008099 0.013476 0.021890 0.017661 
0.001084 -0.027763 -0.069002 -0.122951 -0.190112 -0.271152 
-0.366897 -0.478315 -0.606493 -0.752619 -0.917943 -1.103740 
-1.311251 -1.541611 -1.795758 -2.074313 -2.377439 -2.704672 
-3.054729 -3.425288 -3.812775 -4.212155 -4.616767 -5.018241 
-5.406531 -5.770127 -6.096457 -6.372519 -6.585722 -6.724861 
-6.781155 -6.749185 -6.627598 -6.419431 -6.131997 -5.776314 
-5.366169 -4.916945 -4.444399 -3.963546 -3.487777 -3.028271 
-2.593720 -2.190311 -1.821924 -1.490451 -1.196178 -0.938183 
-0.714691 -0.523399 -0.361722 -0.226999 -0.116632 -0.028193 
0.040516 0.091417 0.126141 0.146021 0.152091 0.145095 
0.125499 0.093506 0.049074 0.000000 0.000000 -1.715828 
-1.887869 -2.027116 -2.121197 -2.161179 -2.143149 -2.068825 
-1.945008 -1.782138 -1.592427 -1.388081 -1.179966 -0.976851 
-0.785180 -0.609217 -0.451399 -0.312774 -0.193409 -0.092746 
-0.009882 0.056230 0.106640 0.142312 0.164064 0.172544 
0.168211 0.151337 0.122008 0.080135 0.025461 -0.042426 
-0.124079 -0.220180 -0.331520 -0.458980 -0.603507 -0.766083 
-0.947684 -1.149229 -1.371521 -1.615164 -1.880472 -2.167348 
-2.475157 -2.802564 -3.147376 -3.506368 -3.875121 -4.247893 
-4.617547 -4.975561 -5.312171 -5.616659 -5.877818 -6.084587 
-6.226816 -6.296122 -6.286706 -6.196042 -6.025305 -5.779471 
-5.467024 -5.099318 -4.689674 -4.252335 -3.801431 -3.350071 
-2.909664 -2.489495 -2.096567 -1.735650 -1.409504 -1.119184 
-0.864400 -0.643862 -0.455607 -0.297268 -0.166293 -0.060115 
0.023729 0.087515 0.133283 0.162806 0.177583 0.178838 
0.167534 0.144387 0.109886 0.064327 0.000000 0.000000 
-1.545680 -1.682672 -1.789605 -1.857066 -1.878468 -1.851130 
-1.776646 -1.660480 -1.510926 -1.337769 -1.150973 -0.959643 
-0.771383 -0.592038 -0.425718 -0.275018 -0.141320 -0.025103 
0.073767 0.155806 0.221725 0.272301 0.308286 0.330343 
0.339014 0.334700 0.317653 0.287976 0.245631 0.190443 
0.122118 0.040247 -0.055669 -0.166211 -0.292015 -0.433752 
-0.592100 -0.767708 -0.961153 -1.172892 -1.403195 -1.652076 
-1.919200 -2.203787 -2.504493 -2.819292 -3.145343 -3.478879 
-3.815099 -4.148109 -4.470922 -4.775536 -5.053131 -5.294386 
-5.489930 -5.630912 -5.709661 -5.720364 -5.659684 -5.527240 
-5.325840 -5.061435 -4.742764 -4.380733 -3.987607 -3.576114 
-3.158596 -2.746274 -2.348729 -1.973591 -1.626453 -1.310952 
-1.028988 -0.781011 -0.566338 -0.383466 -0.230347 -0.104632 
-0.003852 0.074437 0.132554 0.172625 0.196548 0.205975 
0.202307 0.186706 0.160114 0.123276 0.076771 0.000000 
0.000000 -1.370805 -1.475350 -1.552715 -1.595929 -1.600298 
-1.564105 -1.488820 -1.378801 -1.240564 -1.081849 -0.910669 
-0.734541 -0.559956 -0.392118 -0.234907 -0.090984 0.038016 
0.151259 0.248493 0.329862 0.395745 0.446643 0.483086 
0.505575 0.514543 0.510333 0.493181 0.463220 0.420477 
0.364883 0.296281 0.214438 0.119059 0.009802 -0.113703 
-0.251835 -0.404957 -0.573391 -0.757382 -0.957061 -1.172400 
-1.403154 -1.648802 -1.908472 -2.180862 -2.464149 -2.755904 
-3.052998 -3.351528 -3.646766 -3.933141 -4.204283 -4.453136 
-4.672161 -4.853641 -4.990082 -5.074697 -5.101941 -5.068038 
-4.971445 -4.813169 -4.596892 -4.328854 -4.017492 -3.672879 
-3.306020 -2.928100 -2.549780 -2.180606 -1.828592 -1.499995 
-1.199265 -0.929140 -0.690855 -0.484403 -0.308818 -0.162452 
-0.043220 0.051195 0.123175 0.175053 0.209023 0.227092 
0.231049 0.222461 0.202671 0.172823 0.133876 0.086644 
0.000000 0.000000 -1.197409 -1.273077 -1.324456 -1.346508 
-1.335990 -1.291891 -1.215547 -1.110415 -0.981582 -0.835117 
-0.677407 -0.514593 -0.352154 -0.194670 -0.045742 0.091978 
0.216674 0.327219 0.423024 0.503887 0.569871 0.621204 
0.658194 0.681180 0.690485 0.686394 0.669137 0.638886 
0.595749 0.539778 0.470974 0.389296 0.294670 0.187006 
0.066204 -0.067823 -0.215138 -0.375758 -0.549631 -0.736610 
-0.936419 -1.148620 -1.372569 -1.607363 -1.851788 -2.104255 
-2.362737 -2.624701 -2.887054 -3.146091 -3.397472 -3.636237 
-3.856860 -4.053370 -4.219543 -4.349168 -4.436396 -4.476131 
-4.464472 -4.399117 -4.279716 -4.108096 -3.888314 -3.626515 
-3.330599 -3.009717 -2.673663 -2.332238 -1.994652 -1.669037 
-1.362108 -1.078991 -0.823195 -0.596722 -0.400255 -0.233402 
-0.094955 0.016864 0.104183 0.169301 0.214543 0.242158 
0.254250 0.252737 0.239334 0.215549 0.182696 0.141915 
0.094199 0.000000 0.000000 -1.030435 -1.081287 -1.110650 
-1.114956 -1.092026 -1.041335 -0.964067 -0.862960 -0.741968 
-0.605832 -0.459619 -0.308319 -0.156529 -0.008248 0.133220 
0.265283 0.386009 0.494043 0.588507 0.668891 0.734967 
0.786702 0.824192 0.847616 0.857192 0.853151 0.835726 
0.805134 0.761579 0.705243 0.636298 0.554901 0.461207 
0.355371 0.237555 0.107943 -0.033259 -0.185802 -0.349387 
-0.523648 -0.708130 -0.902266 -1.105349 -1.316500 -1.534628 
-1.758385 -1.986120 -2.215830 -2.445112 -2.671117 -2.890526 
-3.099538 -3.293887 -3.468911 -3.619658 -3.741058 -3.828159 
-3.876416 -3.882026 -3.842279 -3.755898 -3.623304 -3.446787 
-3.230522 -2.980421 -2.703820 -2.409030 -2.104806 -1.799780 
-1.501955 -1.218287 -0.954405 -0.714472 -0.501186 -0.315893 
-0.158772 -0.029064 0.074686 0.154406 0.212295 0.250664 
0.271808 0.277922 0.271043 0.253020 0.225504 0.189951 
0.147640 0.099695 0.000000 0.000000 -0.873540 -0.903740 
-0.915085 -0.905087 -0.872314 -0.816553 -0.738832 -0.641310 
-0.527061 -0.399784 -0.263498 -0.122254 0.020099 0.160080 
0.294682 0.421407 0.538265 0.643730 0.736688 0.816370 
0.882286 0.934168 0.971917 0.995561 1.005220 1.001083 
0.983387 0.952407 0.908442 0.851815 0.782865 0.701947 
0.609433 0.505707 0.391170 0.266239 0.131351 -0.013036 
-0.166434 -0.328317 -0.498115 -0.675191 -0.858833 -1.048219 
-1.242400 -1.440260 -1.640484 -1.841517 -2.041521 -2.238340 
-2.429465 -2.612013 -2.782722 -2.937979 -3.073876 -3.186310 
-3.271142 -3.324397 -3.342517 -3.322649 -3.262948 -3.162851 
-3.023305 -2.846888 -2.637809 -2.401749 -2.145571 -1.876900 
-1.603634 -1.333451 -1.073342 -0.829260 -0.605878 -0.406494 
-0.233050 -0.086259 0.034203 0.129480 0.201298 0.251761 
0.283163 0.297845 0.298089 0.286040 0.263666 0.232738 
0.194825 0.151305 0.103388 0.000000 0.000000 -0.729185 
-0.742726 -0.739827 -0.718773 -0.678641 -0.619402 -0.541927 
-0.447917 -0.339766 -0.220367 -0.092918 0.039283 0.173007 
0.305228 0.433218 0.554601 0.667373 0.769894 0.860875 
0.939333 1.004564 1.056095 1.093656 1.117144 1.126595 
1.122164 1.104099 1.072733 1.028463 0.971744 0.903076 
0.822994 0.732062 0.630867 0.520008 0.400092 0.271735 
0.135550 -0.007842 -0.157819 -0.313747 -0.474971 -0.640807 
-0.810517 -0.983295 -1.158238 -1.334314 -1.510334 -1.684911 
-1.856429 -2.023006 -2.182467 -2.332326 -2.469791 -2.591785 
-2.695001 -2.776003 -2.831360 -2.857835 -2.852612 -2.813549 
-2.739448 -2.630291 -2.487432 -2.313691 -2.113324 -1.891861 
-1.655813 -1.412271 -1.168444 -0.931197 -0.706642 -0.499816 
-0.314499 -0.153146 -0.016946 0.094033 0.180645 0.244435 
0.287420 0.311888 0.320226 0.314799 0.297853 0.271458 
0.237480 0.197569 0.153168 0.105526 0.000000 0.000000 
-0.598818 -0.599338 -0.585593 -0.556405 -0.511188 -0.450010 
-0.373598 -0.283292 -0.180962 -0.068888 0.050371 0.174115 
0.299623 0.424259 0.545558 0.661279 0.769444 0.868359 
0.956611 1.033064 1.096845 1.147323 1.184089 1.206934 
1.215827 1.210898 1.192412 1.160756 1.116417 1.059968 
0.992046 0.913341 0.824576 0.726496 0.619853 0.505399 
0.383868 0.255981 0.122432 -0.016106 -0.158980 -0.305554 
-0.455193 -0.607254 -0.761065 -0.915905 -1.070978 -1.225384 
-1.378084 -1.527874 -1.673345 -1.812858 -1.944518 -2.066161 
-2.175359 -2.269446 -2.345573 -2.400804 -2.432244 -2.437220 
-2.413490 -2.359477 -2.274514 -2.159057 -2.014840 -1.844943 
-1.653737 -1.446696 -1.230094 -1.010601 -0.794834 -0.588927 
-0.398150 -0.226645 -0.077286 0.048335 0.149810 0.227742 
0.283524 0.319106 0.336779 0.338984 0.328165 0.306656 
0.276614 0.239974 0.198438 0.153476 0.106341 0.000000 
0.000000 -0.483074 -0.473762 -0.452114 -0.417320 -0.369010 
-0.307298 -0.232781 -0.146521 -0.049991 0.054997 0.166377 
0.281918 0.399314 0.516264 0.630543 0.740057 0.842894 
0.937348 1.021945 1.095454 1.156887 1.205502 1.240789 
1.262464 1.270449 1.264858 1.245975 1.214235 1.170198 
1.114531 1.047978 0.971345 0.885473 0.791220 0.689441 
0.580975 0.466634 0.347189 0.223368 0.095854 -0.034714 
-0.167739 -0.302649 -0.438894 -0.575921 -0.713162 -0.850006 
-0.985775 -1.119696 -1.250872 -1.378246 -1.500579 -1.616416 
-1.724071 -1.821615 -1.906888 -1.977525 -2.031017 -2.064803 
-2.076408 -2.063609 -2.024642 -1.958424 -1.864781 -1.744633 
-1.600125 -1.434653 -1.252777 -1.059995 -0.862415 -0.666337 
-0.477811 -0.302226 -0.143980 -0.006270 0.108987 0.201105 
0.270483 0.318395 0.346751 0.357858 0.354217 0.338345 
0.312657 0.279373 0.240474 0.197683 0.152467 0.106051 
0.000000 0.000000 -0.381975 -0.365539 -0.338458 -0.300170 
-0.250447 -0.189415 -0.117566 -0.035748 0.054866 0.152818 
0.256419 0.363808 0.473015 0.582026 0.688837 0.791512 
0.888231 0.977323 1.057306 1.126910 1.185089 1.231036 
1.264185 1.284205 1.290992 1.284652 1.265488 1.233968 
1.190707 1.136432 1.071963 0.998177 0.915986 0.826313 
0.730069 0.628135 0.521351 0.410501 0.296311 0.179444 
0.060505 -0.059958 -0.181442 -0.303479 -0.425620 -0.547417 
-0.668404 -0.788070 -0.905840 -1.021040 -1.132874 -1.240396 
-1.342478 -1.437792 -1.524792 -1.601710 -1.666574 -1.717234 
-1.751438 -1.766924 -1.761561 -1.733519 -1.681477 -1.604836 
-1.503923 -1.380164 -1.236166 -1.075706 -0.903586 -0.725369 
-0.546999 -0.374378 -0.212923 -0.067194 0.059377 0.164627 
0.247656 0.308711 0.348986 0.370374 0.375217 0.366077 
0.345543 0.316091 0.279987 0.239234 0.195548 0.150363 
0.104850 0.000000 0.000000 -0.295110 -0.273785 -0.243283 
-0.203217 -0.153443 -0.094091 -0.025568 0.051440 0.135983 
0.226869 0.322699 0.421902 0.522787 0.623582 0.722491 
0.817740 0.907622 0.990542 1.065058 1.129909 1.184043 
1.226635 1.257100 1.275088 1.280488 1.273407 1.254157 
1.223228 1.181262 1.129019 1.067352 0.997169 0.919411 
0.835019 0.744916 0.649985 0.551058 0.448901 0.344212 
0.237617 0.129673 0.020875 -0.088339 -0.197574 -0.306464 
-0.414656 -0.521791 -0.627485 -0.731303 -0.832736 -0.931177 
-1.025891 -1.115992 -1.200419 -1.277916 -1.347022 -1.406074 
-1.453225 -1.486489 -1.503817 -1.503204 -1.482836 -1.441269 
-1.377633 -1.291842 -1.184781 -1.058435 -0.915936 -0.761480 
-0.600127 -0.437465 -0.279204 -0.130726 0.003325 0.119365 
0.215054 0.289345 0.342385 0.375325 0.390069 0.389006 
0.374762 0.349988 0.317209 0.278714 0.236503 0.192260 
0.147365 0.102912 0.000000 0.000000 -0.221785 -0.197365 
-0.165041 -0.124540 -0.075780 -0.018887 0.045797 0.117704 
0.196052 0.279848 0.367917 0.458920 0.551392 0.643775 
0.734465 0.821849 0.904355 0.980493 1.048896 1.108358 
1.157862 1.196605 1.224012 1.239742 1.243687 1.235960 
1.216877 1.186931 1.146767 1.097150 1.038927 0.973002 
0.900303 0.821754 0.738255 0.650659 0.559762 0.466290 
0.370896 0.274158 0.176583 0.078610 -0.019380 -0.117054 
-0.214110 -0.310270 -0.405252 -0.498763 -0.590470 -0.679981 
-0.766823 -0.850418 -0.930054 -1.004869 -1.073825 -1.135699 
-1.189073 -1.232345 -1.263761 -1.281468 -1.283600 -1.268403 
-1.234390 -1.180532 -1.106462 -1.012673 -0.900671 -0.773069 
-0.633555 -0.486741 -0.337878 -0.192466 -0.055806 0.067438 
0.173595 0.260220 0.326177 0.371561 0.397519 0.405991 
0.399422 0.380500 0.351932 0.316270 0.275808 0.232518 
0.188032 0.143655 0.100392 0.000000 0.000000 -0.161135 
-0.135024 -0.102106 -0.062191 -0.015239 0.038629 0.099115 
0.165741 0.237846 0.314592 0.394976 0.477845 0.561924 
0.645844 0.728177 0.807474 0.882307 0.951311 1.013225 
1.066926 1.111466 1.146091 1.170262 1.183665 1.186204 
1.177997 1.159356 1.130763 1.092846 1.046342 0.992069 
0.930893 0.863701 0.791370 0.714749 0.634640 0.551784 
0.466855 0.380450 0.293096 0.205246 0.117289 0.029556 
-0.057670 -0.144139 -0.229623 -0.313902 -0.396744 -0.477888 
-0.557025 -0.633778 -0.707678 -0.778145 -0.844461 -0.905755 
-0.960984 -1.008924 -1.048174 -1.077173 -1.094243 -1.097657 
-1.085744 -1.057025 -1.010391 -0.945292 -0.861943 -0.761496 
-0.646153 -0.519186 -0.384826 -0.248014 -0.114038 0.011912 
0.125198 0.222123 0.300198 0.358250 0.396371 0.415738 
0.418343 0.406696 0.383546 0.351637 0.313535 0.271515 
0.227501 0.183055 0.139393 0.097421 0.000000 0.000000 
-0.112212 -0.085475 -0.052876 -0.014287 0.030302 0.080771 
0.136856 0.198140 0.264056 0.333884 0.406756 0.481675 
0.557525 0.633105 0.707151 0.778373 0.845494 0.907287 
0.962611 1.010450 1.049942 1.080404 1.101350 1.112499 
1.113775 1.105297 1.087367 1.060442 1.025114 0.982076 
0.932092 0.875968 0.814528 0.748582 0.678913 0.606257 
0.531290 0.454623 0.376798 0.298287 0.219493 0.140760 
0.062376 -0.015416 -0.092404 -0.168401 -0.243226 -0.316691 
-0.388585 -0.458656 -0.526595 -0.592013 -0.654422 -0.713212 
-0.767638 -0.816795 -0.859612 -0.894850 -0.921108 -0.936861 
-0.940514 -0.930487 -0.905342 -0.863940 -0.805624 -0.730419 
-0.639219 -0.533913 -0.417441 -0.293713 -0.167400 -0.043584 
0.072674 0.176800 0.265120 0.335152 0.385739 0.417010 
0.430198 0.427364 0.411087 0.384166 0.349370 0.309259 
0.266068 0.221658 0.177503 0.134721 0.094113 0.000000 
0.000000 -0.074049 -0.047462 -0.015829 0.020933 0.062810 
0.109678 0.161298 0.217300 0.277187 0.340331 0.405977 
0.473252 0.541185 0.608720 0.674747 0.738131 0.797743 
0.852496 0.901381 0.943496 0.978078 1.004525 1.022410 
1.031490 1.031708 1.023185 1.006203 0.981187 0.948678 
0.909311 0.863783 0.812828 0.757190 0.697604 0.634776 
0.569368 0.501989 0.433185 0.363441 0.293176 0.222749 
0.152461 0.082567 0.013277 -0.055227 -0.122784 -0.189243 
-0.254444 -0.318211 -0.380332 -0.440544 -0.498513 -0.553820 
-0.605936 -0.654207 -0.697837 -0.735875 -0.767210 -0.790576 
-0.804580 -0.807744 -0.798584 -0.775720 -0.738015 -0.684761 
-0.615863 -0.532029 -0.434921 -0.327216 -0.212566 -0.095406 
0.019372 0.126847 0.222539 0.302838 0.365316 0.408875 
0.433715 0.441149 0.433319 0.412867 0.382634 0.345396 
0.303687 0.259686 0.215173 0.171526 0.129757 0.090561 
0.000000 0.000000 -0.045696 -0.019797 0.010446 0.045078 
0.084064 0.127279 0.174496 0.225386 0.279504 0.336297 
0.395104 0.455161 0.515619 0.575557 0.634005 0.689973 
0.742476 0.790566 0.833364 0.870086 0.900069 0.922792 
0.937890 0.945159 0.944561 0.936211 0.920369 0.897418 
0.867845 0.832219 0.791161 0.745325 0.695373 0.641959 
0.585708 0.527209 0.467001 0.405569 0.343340 0.280687 
0.217926 0.155326 0.093108 0.031460 -0.029460 -0.089509 
-0.148555 -0.206460 -0.263069 -0.318196 -0.371611 -0.423021 
-0.472052 -0.518237 -0.560992 -0.599603 -0.633214 -0.660817 
-0.681258 -0.693254 -0.695437 -0.686411 -0.664863 -0.629687 
-0.580156 -0.516107 -0.438128 -0.347714 -0.247348 -0.140473 
-0.031325 0.075380 0.174866 0.262770 0.335582 0.390969 
0.427927 0.446757 0.448869 0.436488 0.412317 0.379222 
0.339969 0.297049 0.252568 0.208211 0.165255 0.124603 
0.086846 0.000000 0.000000 -0.026250 -0.001374 0.027236 
0.059598 0.095658 0.135288 0.178274 0.224314 0.273010 
0.323871 0.376315 0.429674 0.483206 0.536111 0.587551 
0.636666 0.682608 0.724562 0.761770 0.793563 0.819373 
0.838759 0.851413 0.857169 0.856001 0.848019 0.833454 
0.812648 0.786030 0.754098 0.717397 0.676501 0.631990 
0.584436 0.534387 0.482359 0.428824 0.374210 0.318893 
0.263201 0.207413 0.151768 0.096462 0.041663 -0.012486 
-0.065859 -0.118334 -0.169787 -0.220078 -0.269038 -0.316458 
-0.362072 -0.405544 -0.446448 -0.484255 -0.518314 -0.547843 
-0.571918 -0.589476 -0.599331 -0.600206 -0.590795 -0.569853 
-0.536319 -0.489477 -0.429134 -0.355806 -0.270875 -0.176681 
-0.076507 0.025581 0.125027 0.217203 0.297886 0.363693 
0.412420 0.443190 0.456426 0.453646 0.437159 0.409717 
0.374195 0.333333 0.289559 0.244893 0.200919 0.158802 
0.119343 0.083032 0.000000 0.000000 -0.014864 0.008815 
0.035700 0.065783 0.098998 0.135214 0.174227 0.215759 
0.259450 0.304865 0.351489 0.398738 0.445969 0.492490 
0.537577 0.580495 0.620520 0.656955 0.689159 0.716565 
0.738696 0.755180 0.765764 0.770312 0.768809 0.761355 
0.748155 0.729505 0.705778 0.677405 0.644856 0.608627 
0.569221 0.527131 0.482834 0.436778 0.389375 0.340997 
0.291974 0.242595 0.193107 0.143721 0.094614 0.045938 
-0.002178 -0.049616 -0.096264 -0.142006 -0.186709 -0.230217 
-0.272336 -0.312818 -0.351351 -0.387544 -0.420906 -0.450836 
-0.476610 -0.497373 -0.512137 -0.519798 -0.519162 -0.509004 
-0.488149 -0.455592 -0.410646 -0.353118 -0.283490 -0.203076 
-0.114116 -0.019769 0.076040 0.168901 0.254342 0.328291 
0.387525 0.429993 0.454973 0.463024 0.455777 0.435620 
0.405340 0.367808 0.325715 0.281412 0.236821 0.193419 
0.152263 0.114047 0.079170 0.000000 0.000000 -0.010755 
0.011686 0.036873 0.064778 0.095323 0.128377 0.163744 
0.201168 0.240324 0.280824 0.322216 0.363990 0.405588 
0.446416 0.485856 0.523281 0.558077 0.589657 0.617482 
0.641076 0.660043 0.674074 0.682960 0.686593 0.684965 
0.678164 0.666369 0.649832 0.628873 0.603860 0.575194 
0.543300 0.508607 0.471540 0.432508 0.391898 0.350066 
0.307337 0.263999 0.220305 0.176475 0.132697 0.089131 
0.045915 0.003168 -0.038997 -0.080476 -0.121155 -0.160909 
-0.199588 -0.237006 -0.272929 -0.307064 -0.339041 -0.368401 