# vtk DataFile Version 1.0
vtk output
ASCII
DATASET POLYDATA
POINTS 8281 float
-1.000000 0.000000 -1.000000 -0.957036 0.019705 -1.000000 
-0.914803 0.038821 -1.000000 -0.873293 0.057356 -1.000000 
-0.832496 0.075312 -1.000000 -0.792404 0.092695 -1.000000 
-0.753007 0.109511 -1.000000 -0.714297 0.125764 -1.000000 
-0.676264 0.141458 -1.000000 -0.638900 0.156600 -1.000000 
-0.602195 0.171193 -1.000000 -0.566140 0.185244 -1.000000 
-0.530726 0.198756 -1.000000 -0.495944 0.211734 -1.000000 
-0.461785 0.224184 -1.000000 -0.428241 0.236111 -1.000000 
-0.395301 0.247519 -1.000000 -0.362957 0.258414 -1.000000 
-0.331200 0.268800 -1.000000 -0.300021 0.278682 -1.000000 
-0.269410 0.288066 -1.000000 -0.239359 0.296956 -1.000000 
-0.209859 0.305356 -1.000000 -0.180900 0.313273 -1.000000 
-0.152474 0.320711 -1.000000 -0.124571 0.327675 -1.000000 
-0.097183 0.334170 -1.000000 -0.070300 0.340200 -1.000000 
-0.043913 0.345771 -1.000000 -0.018014 0.350888 -1.000000 
0.007407 0.355556 -1.000000 0.032360 0.359779 -1.000000 
0.056852 0.363562 -1.000000 0.080893 0.366911 -1.000000 
0.104492 0.369830 -1.000000 0.127658 0.372325 -1.000000 
0.150400 0.374400 -1.000000 0.172727 0.376060 -1.000000 
0.194649 0.377310 -1.000000 0.216174 0.378156 -1.000000 
0.237311 0.378601 -1.000000 0.258070 0.378651 -1.000000 
0.278459 0.378311 -1.000000 0.298488 0.377586 -1.000000 
0.318165 0.376481 -1.000000 0.337500 0.375000 -1.000000 
0.356502 0.373149 -1.000000 0.375179 0.370933 -1.000000 
0.393541 0.368356 -1.000000 0.411597 0.365423 -1.000000 
0.429355 0.362140 -1.000000 0.446826 0.358511 -1.000000 
0.464018 0.354542 -1.000000 0.480939 0.350236 -1.000000 
0.497600 0.345600 -1.000000 0.514009 0.340638 -1.000000 
0.530175 0.335355 -1.000000 0.546107 0.329756 -1.000000 
0.561815 0.323845 -1.000000 0.577307 0.317629 -1.000000 
0.592593 0.311111 -1.000000 0.607680 0.304297 -1.000000 
0.622580 0.297192 -1.000000 0.637300 0.289800 -1.000000 
0.651850 0.282127 -1.000000 0.666238 0.274177 -1.000000 
0.680474 0.265956 -1.000000 0.694567 0.257467 -1.000000 
0.708526 0.248718 -1.000000 0.722359 0.239711 -1.000000 
0.736077 0.230453 -1.000000 0.749687 0.220947 -1.000000 
0.763200 0.211200 -1.000000 0.776624 0.201216 -1.000000 
0.789968 0.190999 -1.000000 0.803241 0.180556 -1.000000 
0.816452 0.169890 -1.000000 0.829611 0.159007 -1.000000 
0.842726 0.147911 -1.000000 0.855806 0.136608 -1.000000 
0.868861 0.125103 -1.000000 0.881900 0.113400 -1.000000 
0.894931 0.101505 -1.000000 0.907964 0.089421 -1.000000 
0.921007 0.077156 -1.000000 0.934071 0.064712 -1.000000 
0.947163 0.052095 -1.000000 0.960293 0.039311 -1.000000 
0.973469 0.026364 -1.000000 0.986702 0.013258 -1.000000 
1.000000 0.000000 -1.000000 -1.000000 0.000000 -0.973444 
-0.957039 0.016954 -0.973445 -0.914810 0.033458 -0.973449 
-0.873303 0.049514 -0.973454 -0.832509 0.065124 -0.973463 
-0.792420 0.080292 -0.973473 -0.753027 0.095019 -0.973485 
-0.714319 0.109308 -0.973500 -0.676289 0.123162 -0.973516 
-0.638927 0.136582 -0.973535 -0.602224 0.149571 -0.973556 
-0.566171 0.162132 -0.973578 -0.530759 0.174266 -0.973602 
-0.495979 0.185977 -0.973628 -0.461822 0.197267 -0.973656 
-0.428279 0.208139 -0.973685 -0.395341 0.218593 -0.973716 
-0.362998 0.228634 -0.973749 -0.331242 0.238263 -0.973783 
-0.300064 0.247483 -0.973818 -0.269454 0.256297 -0.973855 
-0.239404 0.264706 -0.973893 -0.209905 0.272713 -0.973933 
-0.180947 0.280321 -0.973974 -0.152521 0.287532 -0.974016 
-0.124619 0.294348 -0.974059 -0.097231 0.300771 -0.974103 
-0.070348 0.306805 -0.974148 -0.043962 0.312452 -0.974194 
-0.018063 0.317714 -0.974241 0.007359 0.322593 -0.974289 
0.032311 0.327092 -0.974338 0.056803 0.331213 -0.974387 
0.080844 0.334959 -0.974437 0.104443 0.338332 -0.974488 
0.127610 0.341334 -0.974539 0.150353 0.343969 -0.974591 
0.172680 0.346238 -0.974644 0.194603 0.348143 -0.974696 
0.216128 0.349688 -0.974750 0.237266 0.350874 -0.974803 
0.258026 0.351705 -0.974857 0.278416 0.352181 -0.974911 
0.298445 0.352307 -0.974965 0.318123 0.352084 -0.975019 
0.337459 0.351514 -0.975074 0.356461 0.350601 -0.975128 
0.375139 0.349346 -0.975182 0.393502 0.347752 -0.975236 
0.411559 0.345821 -0.975290 0.429319 0.343556 -0.975344 
0.446791 0.340959 -0.975398 0.463984 0.338033 -0.975451 
0.480906 0.334780 -0.975504 0.497568 0.331202 -0.975556 
0.513978 0.327302 -0.975608 0.530146 0.323082 -0.975659 
0.546079 0.318545 -0.975710 0.561788 0.313693 -0.975760 
0.577281 0.308529 -0.975810 0.592568 0.303054 -0.975858 
0.607657 0.297271 -0.975906 0.622558 0.291184 -0.975953 
0.637279 0.284793 -0.975999 0.651830 0.278102 -0.976044 
0.666220 0.271113 -0.976089 0.680457 0.263829 -0.976132 
0.694551 0.256251 -0.976174 0.708511 0.248382 -0.976214 
0.722345 0.240225 -0.976254 0.736064 0.231782 -0.976292 
0.749676 0.223056 -0.976329 0.763189 0.214048 -0.976364 
0.776614 0.204762 -0.976398 0.789959 0.195199 -0.976431 
0.803233 0.185363 -0.976462 0.816445 0.175255 -0.976491 
0.829605 0.164878 -0.976519 0.842721 0.154234 -0.976545 
0.855802 0.143326 -0.976569 0.868858 0.132157 -0.976592 
0.881897 0.120728 -0.976612 0.894929 0.109042 -0.976631 
0.907962 0.097101 -0.976647 0.921006 0.084909 -0.976662 
0.934070 0.072466 -0.976674 0.947162 0.059776 -0.976685 
0.960292 0.046842 -0.976693 0.973469 0.033665 -0.976699 
0.986702 0.020247 -0.976702 1.000000 0.006593 -0.976703 
-1.000000 0.000000 -0.947106 -0.957050 0.014336 -0.947108 
-0.914830 0.028353 -0.947115 -0.873333 0.042051 -0.947126 
-0.832549 0.055430 -0.947142 -0.792469 0.068491 -0.947162 
-0.753083 0.081232 -0.947187 -0.714383 0.093654 -0.947215 
-0.676361 0.105757 -0.947248 -0.639006 0.117542 -0.947284 
-0.602309 0.129007 -0.947324 -0.566263 0.140154 -0.947368 
-0.530856 0.150981 -0.947415 -0.496082 0.161490 -0.947466 
-0.461930 0.171679 -0.947520 -0.428392 0.181550 -0.947578 
-0.395458 0.191101 -0.947638 -0.363119 0.200334 -0.947702 
-0.331367 0.209248 -0.947769 -0.300192 0.217843 -0.947838 
-0.269585 0.226119 -0.947910 -0.239538 0.234076 -0.947985 
-0.210041 0.241714 -0.948062 -0.181085 0.249033 -0.948142 
-0.152661 0.256034 -0.948224 -0.124760 0.262715 -0.948308 
-0.097373 0.269077 -0.948394 -0.070492 0.275121 -0.948482 
-0.044106 0.280846 -0.948573 -0.018207 0.286251 -0.948664 
0.007214 0.291338 -0.948758 0.032167 0.296106 -0.948853 
0.056659 0.300555 -0.948950 0.080701 0.304685 -0.949048 
0.104301 0.308496 -0.949147 0.127468 0.311989 -0.949248 
0.150212 0.315162 -0.949349 0.172542 0.318016 -0.949452 
0.194465 0.320552 -0.949555 0.215993 0.322769 -0.949659 
0.237133 0.324667 -0.949763 0.257894 0.326246 -0.949869 
0.278286 0.327506 -0.949974 0.298318 0.328447 -0.950080 
0.317999 0.329069 -0.950186 0.337337 0.329373 -0.950292 
0.356342 0.329357 -0.950399 0.375023 0.329023 -0.950505 
0.393389 0.328370 -0.950611 0.411449 0.327398 -0.950716 
0.429212 0.326107 -0.950821 0.446687 0.324498 -0.950926 
0.463883 0.322569 -0.951030 0.480809 0.320322 -0.951133 
0.497475 0.317755 -0.951236 0.513888 0.314870 -0.951337 
0.530059 0.311666 -0.951438 0.545996 0.308144 -0.951537 
0.561709 0.304302 -0.951635 0.577206 0.300142 -0.951732 
0.592496 0.295662 -0.951827 0.607589 0.290864 -0.951920 
0.622493 0.285747 -0.952012 0.637218 0.280311 -0.952103 
0.651772 0.274557 -0.952191 0.666165 0.268483 -0.952277 
0.680406 0.262091 -0.952361 0.694504 0.255380 -0.952443 
0.708467 0.248350 -0.952523 0.722305 0.241001 -0.952600 
0.736027 0.233334 -0.952675 0.749642 0.225348 -0.952747 
0.763158 0.217042 -0.952816 0.776586 0.208419 -0.952883 
0.789934 0.199476 -0.952947 0.803211 0.190214 -0.953007 
0.816426 0.180634 -0.953065 0.829588 0.170735 -0.953119 
0.842706 0.160517 -0.953170 0.855789 0.149980 -0.953217 
0.868847 0.139125 -0.953261 0.881888 0.127950 -0.953301 
0.894922 0.116457 -0.953337 0.907957 0.104646 -0.953370 
0.921002 0.092515 -0.953398 0.934067 0.080066 -0.953422 
0.947160 0.067297 -0.953443 0.960291 0.054210 -0.953458 
0.973469 0.040805 -0.953470 0.986702 0.027080 -0.953477 
1.000000 0.013037 -0.953479 -1.000000 0.000000 -0.920981 
-0.957067 0.011849 -0.920985 -0.914864 0.023503 -0.920995 
-0.873383 0.034961 -0.921012 -0.832614 0.046221 -0.921035 
-0.792548 0.057280 -0.921065 -0.753176 0.068136 -0.921101 
-0.714489 0.078787 -0.921142 -0.676478 0.089230 -0.921190 
-0.639135 0.099463 -0.921243 -0.602449 0.109483 -0.921302 
-0.566413 0.119289 -0.921366 -0.531016 0.128878 -0.921436 
-0.496251 0.138247 -0.921510 -0.462107 0.147396 -0.921589 
-0.428576 0.156320 -0.921674 -0.395649 0.165018 -0.921762 
-0.363317 0.173488 -0.921856 -0.331571 0.181727 -0.921953 
-0.300402 0.189733 -0.922055 -0.269800 0.197504 -0.922161 
-0.239757 0.205037 -0.922270 -0.210264 0.212330 -0.922384 
-0.181311 0.219380 -0.922500 -0.152890 0.226187 -0.922621 
-0.124992 0.232746 -0.922744 -0.097607 0.239056 -0.922870 
-0.070726 0.245115 -0.923000 -0.044341 0.250920 -0.923132 
-0.018443 0.256469 -0.923267 0.006978 0.261760 -0.923404 
0.031930 0.266790 -0.923544 0.056423 0.271557 -0.923685 
0.080466 0.276058 -0.923829 0.104067 0.280292 -0.923975 
0.127237 0.284257 -0.924122 0.149982 0.287949 -0.924271 
0.172314 0.291366 -0.924421 0.194240 0.294507 -0.924572 
0.215771 0.297369 -0.924725 0.236914 0.299949 -0.924878 
0.257678 0.302246 -0.925032 0.278074 0.304257 -0.925187 
0.298110 0.305979 -0.925342 0.317795 0.307411 -0.925498 
0.337137 0.308550 -0.925654 0.356147 0.309394 -0.925809 
0.374833 0.309940 -0.925965 0.393204 0.310186 -0.926120 
0.411269 0.310131 -0.926275 0.429037 0.309771 -0.926429 
0.446517 0.309104 -0.926583 0.463719 0.308128 -0.926735 
0.480651 0.306841 -0.926886 0.497322 0.305241 -0.927037 
0.513741 0.303324 -0.927185 0.529918 0.301089 -0.927333 
0.545860 0.298534 -0.927478 0.561579 0.295656 -0.927622 
0.577082 0.292452 -0.927764 0.592378 0.288922 -0.927903 
0.607476 0.285061 -0.928041 0.622387 0.280869 -0.928175 
0.637117 0.276342 -0.928308 0.651678 0.271479 -0.928437 
0.666076 0.266277 -0.928563 0.680323 0.260733 -0.928687 
0.694426 0.254846 -0.928807 0.708395 0.248613 -0.928924 
[...]
POINT_DATA 8281
SCALARS scalars float
LOOKUP_TABLE default
0.000000 0.000000 0.000000 0.000000 0.000000 0.000000 
0.000000 0.000000 0.000000 0.000000 0.000000 0.000000 
0.000000 0.000000 0.000000 0.000000 0.000000 0.000000 
0.000000 0.000000 0.000000 0.000000 0.000000 0.000000 
0.000000 0.000000 0.000000 0.000000 0.000000 0.000000 
0.000000 0.000000 0.000000 0.000000 0.000000 0.000000 
0.000000 0.000000 0.000000 0.000000 0.000000 0.000000 
0.000000 0.000000 0.000000 0.000000 0.000000 0.000000 
0.000000 0.000000 0.000000 0.000000 0.000000 0.000000 
0.000000 0.000000 0.000000 0.000000 0.000000 0.000000 
0.000000 0.000000 0.000000 0.000000 0.000000 0.000000 
0.000000 0.000000 0.000000 0.000000 0.000000 0.000000 
0.000000 0.000000 0.000000 0.000000 0.000000 0.000000 
0.000000 0.000000 0.000000 0.000000 0.000000 0.000000 
0.000000 0.000000 0.000000 0.000000 0.000000 0.000000 
0.000000 0.000000 -0.071836 -0.063597 -0.045962 -0.022057 
0.005243 0.033680 0.061684 0.088291 0.112993 0.135596 
0.156101 0.174620 0.191318 0.206381 0.219989 0.232308 
0.243483 0.253636 0.262865 0.271246 0.278833 0.285657 
0.291734 0.297057 0.301603 0.305330 0.308179 0.310071 
0.310909 0.310579 0.308943 0.305844 0.301104 0.294521 
0.285871 0.274908 0.261362 0.244946 0.225353 0.202265 
0.175359 0.144317 0.108836 0.068651 0.023551 -0.026592 
-0.081791 -0.141914 -0.206643 -0.275440 -0.347514 -0.421801 
-0.496957 -0.571375 -0.643232 -0.710566 -0.771387 -0.823810 
-0.866206 -0.897346 -0.916518 -0.923609 -0.919127 -0.904159 
-0.880279 -0.849416 -0.813695 -0.775285 -0.736256 -0.698471 
-0.663513 -0.632642 -0.606783 -0.586543 -0.572234 -0.563912 
-0.561409 -0.564373 -0.572299 -0.584545 -0.600359 -0.618878 
-0.639134 -0.660050 -0.680426 -0.698926 -0.714055 -0.724139 
-0.727306 0.000000 0.000000 -0.007371 0.023893 0.058370 
0.093455 0.127257 0.158625 0.187013 0.212305 0.234649 
0.254329 0.271686 0.287063 0.300779 0.313118 0.324321 
0.334587 0.344079 0.352928 0.361232 0.369063 0.376471 
0.383484 0.390111 0.396342 0.402152 0.407497 0.412315 
0.416531 0.420046 0.422746 0.424496 0.425139 0.424494 
0.422357 0.418498 0.412659 0.404556 0.393876 0.380280 
0.363406 0.342872 0.318281 0.289235 0.255346 0.216251 
0.171643 0.121288 0.065070 0.003018 -0.064645 -0.137467 
-0.214731 -0.295429 -0.378253 -0.461615 -0.543689 -0.622493 
-0.695999 -0.762269 -0.819602 -0.866675 -0.902660 -0.927296 
-0.940906 -0.944362 -0.938994 -0.926463 -0.908624 -0.887379 
-0.864554 -0.841799 -0.820521 -0.801846 -0.786604 -0.775340 
-0.768335 -0.765628 -0.767051 -0.772258 -0.780745 -0.791870 
-0.804869 -0.818861 -0.832850 -0.845721 -0.856234 -0.863015 
-0.864542 -0.859135 0.000000 0.000000 0.058219 0.111176 
0.161598 0.207437 0.247715 0.282275 0.311489 0.335999 
0.356546 0.373854 0.388580 0.401289 0.412449 0.422444 
0.431578 0.440090 0.448165 0.455946 0.463534 0.471004 
0.478403 0.485756 0.493069 0.500328 0.507506 0.514556 
0.521416 0.528008 0.534233 0.539977 0.545100 0.549444 
0.552824 0.555030 0.555820 0.554924 0.552038 0.546824 
0.538907 0.527880 0.513301 0.494702 0.471591 0.443465 
0.409823 0.370188 0.324131 0.271302 0.211469 0.144561 
0.070710 -0.009696 -0.095979 -0.187137 -0.281838 -0.378431 
-0.475000 -0.569438 -0.659573 -0.743297 -0.818729 -0.884349 
-0.939119 -0.982560 -1.014766 -1.036374 -1.048478 -1.052515 
-1.050127 -1.043031 -1.032899 -1.021260 -1.009437 -0.998501 
-0.989260 -0.982253 -0.977771 -0.975873 -0.976414 -0.979065 
-0.983340 -0.988606 -0.994102 -0.998944 -1.002133 -1.002554 
-0.998975 -0.990047 -0.974305 0.000000 0.000000 0.123186 
0.196127 0.261454 0.317643 0.364500 0.402710 0.433415 
0.457907 0.477441 0.493135 0.505935 0.516615 0.525793 
0.533951 0.541463 0.548614 0.555619 0.562635 0.569777 
0.577121 0.584717 0.592590 0.600743 0.609162 0.617815 
0.626654 0.635615 0.644614 0.653551 0.662305 0.670735 
0.678673 0.685927 0.692274 0.697460 0.701195 0.703150 
0.702956 0.700204 0.694436 0.685153 0.671814 0.653840 
0.630622 0.601534 0.565950 0.523264 0.472926 0.414472 
0.347574 0.272087 0.188101 0.095995 -0.003520 -0.109365 
-0.220084 -0.333866 -0.448592 -0.561933 -0.671468 -0.774842 
-0.869915 -0.954920 -1.028581 -1.090189 -1.139627 -1.177333 
-1.204226 -1.221587 -1.230932 -1.233880 -1.232034 -1.226886 
-1.219744 -1.211689 -1.203552 -1.195908 -1.189088 -1.183195 
-1.178123 -1.173582 -1.169118 -1.164130 -1.157888 -1.149541 
-1.138132 -1.122602 -1.101796 -1.074474 0.000000 0.000000 
0.185952 0.276903 0.355987 0.422130 0.475758 0.518210 
0.551236 0.576650 0.596135 0.611146 0.622888 0.632330 
0.640231 0.647180 0.653625 0.659901 0.666260 0.672884 
0.679902 0.687402 0.695438 0.704037 0.713203 0.722921 
0.733156 0.743856 0.754953 0.766359 0.777966 0.789646 
0.801247 0.812591 0.823471 0.833647 0.842844 0.850748 
0.857001 0.861199 0.862888 0.861564 0.856667 0.847588 
0.833666 0.814199 0.788450 0.755666 0.715098 0.666027 
0.607803 0.539889 0.461911 0.373713 0.275421 0.167495 
0.050778 -0.073472 -0.203576 -0.337462 -0.472728 -0.606747 
-0.736802 -0.860249 -0.974680 -1.078087 -1.168975 -1.246449 
-1.310230 -1.360626 -1.398448 -1.424902 -1.441456 -1.449706 
-1.451257 -1.447626 -1.440162 -1.430001 -1.418036 -1.404912 
-1.391027 -1.376552 -1.361446 -1.345486 -1.328280 -1.309294 
-1.287871 -1.263244 -1.234552 -1.200858 -1.161153 0.000000 
0.000000 0.245212 0.352043 0.443664 0.519351 0.579973 
0.627327 0.663597 0.690987 0.711511 0.726900 0.738581 
0.747698 0.755149 0.761624 0.767651 0.773625 0.779839 
0.786507 0.793779 0.801759 0.810510 0.820064 0.830428 
0.841586 0.853501 0.866116 0.879357 0.893126 0.907307 
0.921759 0.936315 0.950779 0.964925 0.978490 0.991171 
1.002624 1.012455 1.020220 1.025421 1.027501 1.025845 
1.019778 1.008568 0.991434 0.967550 0.936064 0.896114 
0.846860 0.787514 0.717385 0.635929 0.542807 0.437946 
0.321602 0.194414 0.057454 -0.087755 -0.239237 -0.394602 
-0.551127 -0.705870 -0.855818 -0.998057 -1.129944 -1.249267 
-1.354365 -1.444210 -1.518421 -1.577236 -1.621426 -1.652185 
-1.670996 -1.679493 -1.679344 -1.672142 -1.659329 -1.642137 
-1.621565 -1.598360 -1.573026 -1.545835 -1.516849 -1.485944 
-1.452833 -1.417093 -1.378183 -1.335468 -1.288235 -1.235715 
0.000000 0.000000 0.299997 0.420521 0.523416 0.608202 
0.676016 0.728926 0.769384 0.799848 0.822564 0.839471 
0.852177 0.861977 0.869894 0.876720 0.883064 0.889384 
0.896021 0.903228 0.911181 0.920003 0.929772 0.940527 
0.952280 0.965015 0.978691 0.993246 1.008596 1.024633 
1.041225 1.058214 1.075413 1.092604 1.109533 1.125908 
1.141393 1.155607 1.168118 1.178437 1.186021 1.190262 
1.190494 1.185986 1.175949 1.159540 1.135871 1.104021 
1.063061 1.012070 0.950177 0.876598 0.790680 0.691963 
0.580235 0.455596 0.318518 0.169897 0.011090 -0.156067 
-0.329278 -0.505836 -0.682708 -0.856666 -1.024440 -1.182889 
-1.329180 -1.460943 -1.576393 -1.674412 -1.754561 -1.817055 
-1.862677 -1.892662 -1.908565 -1.912122 -1.905122 -1.889295 
-1.866229 -1.837313 -1.803697 -1.766279 -1.725712 -1.682412 
-1.636580 -1.588232 -1.537221 -1.483265 -1.425972 -1.364866 
-1.299405 0.000000 0.000000 0.349685 0.481750 0.594639 
0.688024 0.763157 0.822211 0.867752 0.902362 0.928425 
0.948016 0.962876 0.974423 0.983786 0.991855 0.999315 
1.006691 1.014377 1.022665 1.031765 1.041823 1.052933 
1.065145 1.078477 1.092910 1.108403 1.124883 1.142256 
1.160398 1.179158 1.198357 1.217781 1.237183 1.256279 
1.274740 1.292195 1.308220 1.322343 1.334031 1.342697 
1.347690 1.348299 1.343753 1.333223 1.315831 1.290654 
1.256742 1.213135 1.158886 1.093092 1.014929 0.923697 
0.818872 0.700155 0.567537 0.421352 0.262336 0.091668 
-0.088995 -0.277521 -0.471318 -0.667397 -0.862464 -1.053049 
-1.235664 -1.406979 -1.563993 -1.704200 -1.825713 -1.927341 
-2.008619 -2.069778 -2.111660 -2.135606 -2.143315 -2.136701 
-2.117751 -2.088413 -2.050498 -2.005611 -1.955116 -1.900115 
-1.841450 -1.779714 -1.715276 -1.648309 -1.578819 -1.506671 
-1.431624 -1.353351 0.000000 0.000000 0.393985 0.535539 
0.657155 0.758576 0.841049 0.906716 0.958126 0.997873 
1.028381 1.051793 1.069932 1.084303 1.096124 1.106364 
1.115783 1.124967 1.134366 1.144313 1.155054 1.166760 
1.179544 1.193468 1.208554 1.224784 1.242110 1.260451 
1.279696 1.299702 1.320297 1.341274 1.362389 1.383363 
1.403873 1.423555 1.441996 1.458733 1.473253 1.484985 
1.493304 1.497525 1.496910 1.490665 1.477945 1.457864 
1.429499 1.391909 1.344145 1.285277 1.214420 1.130762 
1.033603 0.922399 0.796812 0.656753 0.502447 0.334476 
0.153835 -0.038034 -0.239219 -0.447332 -0.659538 -0.872615 
-1.083042 -1.287136 -1.481203 -1.661720 -1.825512 -1.969926 
-2.092967 -2.193387 -2.270724 -2.325276 -2.358022 -2.370500 
-2.364660 -2.342698 -2.306914 -2.259565 -2.202771 -2.138426 
-2.068160 -1.993312 -1.914934 -1.833803 -1.750450 -1.665190 
-1.578153 -1.489325 -1.398571 0.000000 0.000000 0.432886 
0.582032 0.711140 0.819974 0.909686 0.982286 1.040199 
1.085935 1.121878 1.150170 1.172661 1.190908 1.206188 
1.219535 1.231768 1.243533 1.255328 1.267529 1.280417 
1.294189 1.308975 1.324850 1.341840 1.359926 1.379052 
1.399124 1.420015 1.441558 1.463555 1.485769 1.507922 
1.529700 1.550743 1.570649 1.588965 1.605194 1.618787 
1.629144 1.635615 1.637499 1.634048 1.624470 1.607932 
1.583569 1.550494 1.507807 1.454613 1.390038 1.313251 
1.223491 1.120096 1.002536 0.870456 0.723719 0.562447 
0.387078 0.198410 -0.002352 -0.213561 -0.433100 -0.658381 
-0.886363 -1.113611 -1.336383 -1.550758 -1.752805 -1.938763 
-2.105242 -2.249415 -2.369173 -2.463239 -2.531217 -2.573573 
-2.591545 -2.587013 -2.562324 -2.520105 -2.463089 -2.393951 
-2.315193 -2.229046 -2.137423 -2.041898 -1.943708 -1.843773 
-1.742733 -1.640986 -1.538726 -1.435987 0.000000 0.000000 
0.466600 0.621625 0.757051 0.872623 0.969347 1.049032 
1.113905 1.166313 1.208529 1.242634 1.270456 1.293560 
1.313254 1.330611 1.346498 1.361606 1.376475 1.391520 
1.407051 1.423291 1.440386 1.458421 1.477424 1.497373 
1.518202 1.539804 1.562027 1.584684 1.607546 1.630344 
1.652769 1.674469 1.695049 1.714073 1.731059 1.745479 
1.756763 1.764295 1.767419 1.765439 1.757620 1.743198 
1.721381 1.691358 1.652305 1.603400 1.543828 1.472801 
1.389573 1.293455 1.183844 1.060245 0.922301 0.769831 
0.602867 0.421699 0.226923 0.019488 -0.199252 -0.427499 
-0.662974 -0.902909 -1.144057 -1.382740 -1.614941 -1.836434 
-2.042966 -2.230468 -2.395281 -2.534386 -2.645590 -2.727669 
-2.780421 -2.804647 -2.802043 -2.775028 -2.726535 -2.659778 
-2.578043 -2.484500 -2.382061 -2.273285 -2.160329 -2.044934 
-1.928437 -1.811814 -1.695717 -1.580533 -1.466427 0.000000 
0.000000 0.495492 0.654891 0.795535 0.917140 1.020535 
1.107291 1.179386 1.238954 1.288102 1.328793 1.362788 
1.391622 1.416597 1.438802 1.459130 1.478301 1.496888 
1.515333 1.533972 1.553046 1.572714 1.593068 1.614135 
1.635888 1.658249 1.681091 1.704243 1.727492 1.750580 
1.773207 1.795034 1.815677 1.834715 1.851684 1.866082 
1.877368 1.884967 1.888267 1.886626 1.879377 1.865827 
1.845265 1.816968 1.780203 1.734239 1.678351 1.611829 
1.533988 1.444178 1.341797 1.226306 1.097247 0.954267 
0.797142 0.625811 0.440414 0.241341 0.029279 -0.194730 
-0.429230 -0.672296 -0.921492 -1.173837 -1.425818 -1.673428 
-1.912264 -2.137681 -2.345001 -2.529765 -2.688020 -2.816588 
-2.913297 -2.977146 -3.008354 -3.008316 -2.979443 -2.924933 
-2.848494 -2.754060 -2.645535 -2.526583 -2.400478 -2.270015 
-2.137475 -2.004635 -1.872802 -1.742873 -1.615397 -1.490640 
0.000000 0.000000 0.520029 0.682507 0.827363 0.954281 
1.063909 1.157565 1.236958 1.303972 1.360508 1.408372 
1.449218 1.484507 1.515508 1.543294 1.568760 1.592639 
1.615518 1.637858 1.660008 1.682220 1.704662 1.727425 
1.750533 1.773950 1.797583 1.821288 1.844872 1.868096 
1.890678 1.912293 1.932575 1.951121 1.967491 1.981211 
1.991773 1.998642 2.001258 1.999037 1.991378 1.977663 
1.957268 1.929559 1.893905 1.849673 1.796241 1.732996 
1.659340 1.574698 1.478518 1.370282 1.249511 1.115780 
0.968730 0.808089 0.633700 0.445553 0.243828 0.028951 
-0.198350 -0.436972 -0.685364 -0.941453 -1.202582 -1.465476 
-1.726228 -1.980362 -2.222938 -2.448754 -2.652605 -2.829607 
-2.975553 -3.087237 -3.162735 -3.201559 -3.204684 -3.174429 
-3.114216 -3.028246 -2.921139 -2.797590 -2.662080 -2.518658 
-2.370805 -2.221373 -2.072584 -1.926074 -1.782960 -1.643925 
-1.509300 0.000000 0.000000 0.540726 0.705195 0.853359 
0.984875 1.100226 1.200478 1.287066 1.361613 1.425787 
1.481209 1.529388 1.571684 1.609297 1.643257 1.674435 
1.703555 1.731200 1.757834 1.783808 1.809376 1.834703 
1.859876 1.884912 1.909760 1.934314 1.958412 1.981841 
2.004343 2.025615 2.045316 2.063067 2.078456 2.091042 
2.100356 2.105908 2.107191 2.103681 2.094847 2.080150 
2.059050 2.031008 1.995491 1.951971 1.899929 1.838858 
1.768262 1.687654 1.596563 1.494525 1.381095 1.255842 
1.118360 0.968273 0.805255 0.629044 0.439482 0.236544 
0.020399 -0.208530 -0.449487 -0.701297 -0.962266 -1.230092 
-1.501785 -1.773614 -2.041112 -2.299141 -2.542062 -2.763988 
-2.959137 -3.122253 -3.249039 -3.336550 -3.383477 -3.390268 
-3.359069 -3.293482 -3.198194 -3.078541 -2.940060 -2.788108 
-2.627558 -2.462612 -2.296713 -2.132529 -1.972007 -1.816462 
-1.666677 -1.523011 0.000000 0.000000 0.558110 0.723676 
0.874351 1.009777 1.130288 1.236722 1.330248 1.412226 
1.484085 1.547238 1.603028 1.652685 1.697310 1.737864 
1.775171 1.809918 1.842669 1.873870 1.903862 1.932887 
1.961101 1.988579 2.015324 2.041274 2.066306 2.090241 
2.112855 2.133875 2.152990 2.169855 2.184092 2.195298 
2.203050 2.206909 2.206422 2.201131 2.190577 2.174299 
2.151845 2.122767 2.086630 2.043009 1.991491 1.931672 
1.863158 1.785561 1.698498 1.601583 1.494430 1.376646 
1.247831 1.107581 0.955494 0.791175 0.614262 0.424445 
0.221505 0.005366 -0.223838 -0.465683 -0.719358 -0.983547 
-1.256314 -1.534985 -1.816054 -2.095133 -2.366971 -2.625575 
-2.864451 -3.076966 -3.256828 -3.398611 -3.498281 -3.553614 
-3.564442 -3.532657 -3.462000 -3.357640 -3.225648 -3.072448 
-2.904313 -2.726983 -2.545406 -2.363620 -2.184731 -2.010979 
-1.843842 -1.684171 -1.532320 0.000000 0.000000 0.572689 
0.738638 0.891134 1.029820 1.154904 1.267019 1.367094 
1.456235 1.535630 1.606481 1.669945 1.727104 1.778936 
1.826309 1.869972 1.910559 1.948589 1.984475 2.018532 
2.050979 2.081953 2.111510 2.139637 2.166258 2.191236 
2.214383 2.235468 2.254218 2.270325 2.283457 2.293255 
2.299347 2.301349 2.298871 2.291523 2.278920 2.260681 
2.236441 2.205843 2.168549 2.124232 2.072579 2.013288 
1.946065 1.870619 1.786657 1.693878 1.591969 1.480595 
1.359398 1.227990 1.085955 0.932849 0.768209 0.591564 
0.402461 0.200499 -0.014624 -0.243045 -0.484650 -0.738968 
-1.005049 -1.281318 -1.565433 -1.854143 -2.143193 -2.427286 
-2.700156 -2.954777 -3.183727 -3.379703 -3.536146 -3.647889 
-3.711726 -3.726794 -3.694673 -3.619202 -3.506021 -3.361959 
-3.194351 -3.010425 -2.816810 -2.619212 -2.422259 -2.229476 
-2.043365 -1.865541 -1.696885 -1.537714 0.000000 0.000000 
0.584940 0.750713 0.904445 1.045788 1.174849 1.292089 
1.398216 1.494104 1.580714 1.659030 1.730022 1.794606 
1.853621 1.907821 1.957861 2.004299 2.047592 2.088104 
2.126106 2.161785 2.195249 2.226532 2.255602 2.282370 
2.306691 2.328377 2.347200 2.362900 2.375191 2.383770 
2.388320 2.388519 2.384044 2.374578 2.359810 2.339445 
2.313202 2.280815 2.242038 2.196640 2.144403 2.085122 
2.018597 1.944628 1.863012 1.773531 1.675946 1.569993 
1.455370 1.331733 1.198689 1.055797 0.902564 0.738449 
0.562881 0.375270 0.175046 -0.038298 -0.265145 -0.505662 
-0.759698 -1.026641 -1.305267 -1.593561 -1.888546 -2.186136 
-2.481042 -2.766794 -3.035909 -3.280237 -3.491513 -3.662057 
-3.785553 -3.857772 -3.877101 -3.844763 -3.764661 -3.642904 
-3.487081 -3.305466 -3.106258 -2.896985 -2.684107 -2.472826 
-2.267060 -2.069541 -1.881979 -1.705261 -1.539634 0.000000 
0.000000 0.595291 0.760468 0.914947 1.058398 1.190851 
1.312618 1.424220 1.526321 1.619665 1.705034 1.783204 
1.854921 1.920874 1.981686 2.037904 2.089990 2.138325 
2.183207 2.224855 2.263412 2.298952 2.331482 2.360955 
2.387270 2.410285 2.429820 2.445664 2.457588 2.465345 
2.468682 2.467342 2.461075 2.449638 2.432801 2.410352 
2.382096 2.347856 2.307477 2.260817 2.207751 2.148162 
2.081939 2.008967 1.929126 1.842277 1.748257 1.646868 
1.537874 1.420984 1.295853 1.162071 1.019159 0.866569 
0.703686 0.529839 0.344314 0.146389 -0.064630 -0.289344 
-0.528174 -0.781256 -1.048292 -1.328385 -1.619839 -1.919953 
-2.224829 -2.529228 -2.826533 -3.108866 -3.367421 -3.593023 
-3.776906 -3.911611 -3.991869 -4.015293 -3.982712 -3.898081 
-3.767965 -3.600725 -3.405579 -3.191702 -2.967516 -2.740218 
-2.515553 -2.297796 -2.089873 -1.893558 -1.709706 -1.538476 
0.000000 0.000000 0.604122 0.768397 0.923222 1.068287 
1.203564 1.329243 1.445684 1.553364 1.652834 1.744679 
1.829493 1.907847 1.980277 2.047266 2.109238 2.166552 
2.219498 2.268300 2.313113 2.354032 2.391093 2.424280 
2.453530 2.478743 2.499785 2.516498 2.528708 2.536229 
2.538873 2.536455 2.528798 2.515737 2.497123 2.472830 
2.442748 2.406787 2.364879 2.316971 2.263021 2.202997 
2.136870 2.064604 1.986153 1.901453 1.810409 1.712891 
1.608725 1.497681 1.379467 1.253721 1.120004 0.977796 
0.826490 0.665401 0.493762 0.310751 0.115507 -0.092828 
-0.315045 -0.551795 -0.803466 -1.070047 -1.350941 -1.644750 
-1.949043 -2.260120 -2.572815 -2.880408 -3.174687 -3.446249 
-3.685071 -3.881349 -4.026509 -4.114254 -4.141416 -4.108424 
-4.019274 -3.880988 -3.702699 -3.494564 -3.266725 -3.028476 
-2.787715 -2.550694 -2.322004 -2.104723 -1.900654 -1.710594 
-1.534591 0.000000 0.000000 0.611758 0.774924 0.929768 
1.076007 1.213565 1.342536 1.463140 1.575693 1.680570 
1.778179 1.868937 1.953248 2.031493 2.104012 2.171105 
2.233016 2.289941 2.342022 2.389350 2.431967 2.469876 
2.503039 2.531387 2.554828 2.573251 2.586535 2.594554 
2.597187 2.594317 2.585845 2.571682 2.551765 2.526047 
2.494505 2.457136 2.413953 2.364987 2.310277 2.249870 
2.183809 2.112134 2.034867 1.952009 1.863530 1.769362 
1.669389 1.563442 1.451283 1.332607 1.207026 1.074066 
0.933161 0.783650 0.624776 0.455693 0.275475 0.083143 
-0.122303 -0.341824 -0.576267 -0.826248 -1.092007 -1.373220 
-1.668765 -1.976463 -2.292808 -2.612724 -2.929415 -3.234382 
-3.517684 -3.768514 -3.976084 -4.130759 -4.225242 -4.255606 
-4.221894 -4.128149 -3.981850 -3.792897 -3.572374 -3.331363 
-3.079990 -2.826810 -2.578533 -2.340015 -2.114447 -1.903627 
-1.708271 -1.528299 0.000000 0.000000 0.618477 0.780401 
0.935003 1.082024 1.221352 1.352997 1.477064 1.593729 
1.703212 1.805758 1.901621 1.991049 2.074270 2.151488 
2.222875 2.288564 2.348655 2.403209 2.452255 2.495787 
2.533779 2.566180 2.592927 2.613945 2.629163 2.638507 
2.641919 2.639350 2.630771 2.616175 2.595574 2.569005 
2.536527 2.498217 2.454172 2.404498 2.349312 2.288731 
2.222871 2.151834 2.075708 1.994551 1.908393 1.817222 
1.720976 1.619541 1.512736 1.400309 1.281929 1.157180 
1.025548 0.886423 0.739090 0.582729 0.416421 0.239152 
0.049838 -0.152642 -0.369397 -0.601442 -0.849593 -1.114313 
-1.395517 -1.692331 -2.002810 -2.323628 -2.649800 -2.974474 
-3.288898 -3.582645 -3.844184 -4.061815 -4.224896 -4.325194 
-4.358064 -4.323194 -4.224694 -4.070510 -3.871297 -3.639041 
-3.385719 -3.122238 -2.857753 -2.599370 -2.352163 -2.119391 
-1.902816 -1.703053 -1.519885 0.000000 0.000000 0.624507 
0.785115 0.939268 1.086721 1.227334 1.361048 1.487869 
1.607849 1.721073 1.827641 1.927660 2.021231 2.108445 
2.189373 2.264068 2.332559 2.394856 2.450947 2.500803 
2.544384 2.581643 2.612528 2.636993 2.654998 2.666518 
2.671546 2.670096 2.662205 2.647938 2.627382 2.600651 
2.567881 2.529228 2.484862 2.434964 2.379720 2.319316 
2.253928 2.183722 2.108838 2.029392 1.945465 1.857094 
1.764269 1.666925 1.564934 1.458096 1.346138 1.228699 
1.105328 0.975477 0.838490 0.693603 0.539943 0.376522 
0.202253 0.015963 -0.183575 -0.397595 -0.627259 -0.873552 
-1.137131 -1.418121 -1.715866 -2.028626 -2.353240 -2.684803 
-3.016416 -3.339098 -3.641980 -3.912867 -4.139215 -4.309456 
-4.414492 -4.449028 -4.412449 -4.308969 -4.147004 -3.937952 
-3.694663 -3.429956 -3.155449 -2.880826 -2.613525 -2.358785 
-2.119891 -1.898542 -1.695232 -1.509603 0.000000 0.000000 