# vtk DataFile Version 1.0
vtk output
ASCII
DATASET POLYDATA
POINTS 8281 float
-1.008450 0.017065 -0.995453 -0.924189 0.043353 -0.997444 
-0.845058 0.068286 -0.999270 -0.770874 0.091907 -1.000936 
-0.701455 0.114264 -1.002449 -0.636620 0.135401 -1.003812 
-0.576187 0.155366 -1.005033 -0.519973 0.174204 -1.006117 
-0.467796 0.191961 -1.007068 -0.419475 0.208683 -1.007894 
-0.374828 0.224416 -1.008599 -0.333672 0.239205 -1.009189 
-0.295825 0.253098 -1.009669 -0.261105 0.266139 -1.010046 
-0.229331 0.278375 -1.010324 -0.200321 0.289851 -1.010510 
-0.173891 0.300614 -1.010609 -0.149861 0.310710 -1.010626 
-0.128049 0.320184 -1.010567 -0.108271 0.329082 -1.010439 
-0.090347 0.337451 -1.010245 -0.074095 0.345336 -1.009992 
-0.059331 0.352783 -1.009686 -0.045875 0.359839 -1.009331 
-0.033544 0.366549 -1.008935 -0.022156 0.372959 -1.008501 
-0.011530 0.379115 -1.008036 -0.001483 0.385063 -1.007546 
0.008167 0.390849 -1.007036 0.017602 0.396519 -1.006511 
0.027004 0.402118 -1.005977 0.036524 0.407683 -1.005440 
0.046191 0.413207 -1.004900 0.056003 0.418672 -1.004361 
0.065959 0.424062 -1.003824 0.076058 0.429359 -1.003290 
0.086296 0.434546 -1.002761 0.096673 0.439606 -1.002239 
0.107188 0.444522 -1.001726 0.117837 0.449277 -1.001223 
0.128620 0.453853 -1.000732 0.139535 0.458234 -1.000254 
0.150580 0.462402 -0.999792 0.161754 0.466341 -0.999346 
0.173054 0.470032 -0.998919 0.184479 0.473460 -0.998513 
0.196028 0.476606 -0.998128 0.207699 0.479455 -0.997768 
0.219489 0.481987 -0.997432 0.231398 0.484187 -0.997124 
0.243423 0.486038 -0.996845 0.255564 0.487521 -0.996596 
0.267817 0.488621 -0.996379 0.280182 0.489320 -0.996196 
0.292657 0.489600 -0.996048 0.305240 0.489445 -0.995938 
0.317929 0.488838 -0.995866 0.330723 0.487761 -0.995835 
0.343620 0.486197 -0.995847 0.356619 0.484129 -0.995902 
0.369717 0.481541 -0.996003 0.382920 0.478411 -0.996150 
0.396266 0.474712 -0.996340 0.409797 0.470409 -0.996567 
0.423558 0.465471 -0.996827 0.437592 0.459866 -0.997114 
0.451944 0.453561 -0.997424 0.466657 0.446524 -0.997751 
0.481775 0.438723 -0.998092 0.497342 0.430124 -0.998440 
0.513403 0.420696 -0.998791 0.530000 0.410407 -0.999140 
0.547178 0.399224 -0.999482 0.564980 0.387115 -0.999812 
0.583451 0.374047 -1.000126 0.602635 0.359989 -1.000417 
0.622575 0.344907 -1.000682 0.643315 0.328770 -1.000916 
0.664899 0.311545 -1.001112 0.687371 0.293199 -1.001267 
0.710776 0.273701 -1.001376 0.735156 0.253019 -1.001434 
0.760556 0.231119 -1.001435 0.787019 0.207969 -1.001374 
0.814590 0.183537 -1.001248 0.843312 0.157792 -1.001051 
0.873229 0.130699 -1.000777 0.904386 0.102228 -1.000423 
0.936826 0.072346 -0.999982 0.970592 0.041020 -0.999451 
1.005730 0.008218 -0.998824 -1.005369 0.022785 -0.909004 
-0.921647 0.038972 -0.911597 -0.843007 0.054389 -0.914239 
-0.769269 0.069063 -0.916919 -0.700253 0.083023 -0.919629 
-0.635779 0.096298 -0.922358 -0.575668 0.108918 -0.925097 
-0.519739 0.120909 -0.927836 -0.467813 0.132302 -0.930565 
-0.419709 0.143126 -0.933276 -0.375248 0.153408 -0.935957 
-0.334249 0.163178 -0.938599 -0.296533 0.172465 -0.941193 
-0.261920 0.181297 -0.943729 -0.230230 0.189703 -0.946198 
-0.201283 0.197712 -0.948588 -0.174898 0.205353 -0.950892 
-0.150897 0.212654 -0.953099 -0.129099 0.219645 -0.955199 
-0.109324 0.226354 -0.957183 -0.091392 0.232809 -0.959040 
-0.075123 0.239040 -0.960763 -0.060338 0.245076 -0.962340 
-0.046856 0.250944 -0.963761 -0.034497 0.256675 -0.965018 
-0.023082 0.262296 -0.966101 -0.012430 0.267837 -0.966999 
-0.002362 0.273327 -0.967704 0.007302 0.278793 -0.968204 
0.016742 0.284266 -0.968492 0.026139 0.289773 -0.968557 
0.035642 0.295336 -0.968393 0.045280 0.300950 -0.968010 
0.055053 0.306602 -0.967421 0.064959 0.312277 -0.966642 
0.074999 0.317963 -0.965684 0.085171 0.323647 -0.964562 
0.095475 0.329316 -0.963291 0.105910 0.334956 -0.961882 
0.116475 0.340555 -0.960350 0.127169 0.346099 -0.958710 
0.137991 0.351575 -0.956973 0.148942 0.356971 -0.955155 
0.160020 0.362272 -0.953269 0.171224 0.367466 -0.951329 
0.182553 0.372540 -0.949347 0.194007 0.377480 -0.947339 
0.205586 0.382274 -0.945318 0.217288 0.386908 -0.943298 
0.229112 0.391369 -0.941291 0.241058 0.395644 -0.939313 
0.253125 0.399720 -0.937376 0.265313 0.403584 -0.935494 
0.277620 0.407222 -0.933682 0.290046 0.410622 -0.931952 
0.302590 0.413770 -0.930319 0.315251 0.416653 -0.928796 
0.328028 0.419259 -0.927398 0.340922 0.421573 -0.926136 
0.353930 0.423584 -0.925027 0.367053 0.425277 -0.924082 
0.380296 0.426630 -0.923312 0.393696 0.427588 -0.922708 
0.407295 0.428083 -0.922258 0.421136 0.428050 -0.921951 
0.435263 0.427423 -0.921772 0.449717 0.426135 -0.921711 
0.464541 0.424122 -0.921754 0.479779 0.421316 -0.921890 
0.495474 0.417652 -0.922105 0.511668 0.413065 -0.922389 
0.528404 0.407487 -0.922727 0.545725 0.400854 -0.923108 
0.563674 0.393099 -0.923520 0.582294 0.384157 -0.923950 
0.601627 0.373960 -0.924386 0.621717 0.362445 -0.924816 
0.642606 0.349543 -0.925226 0.664337 0.335190 -0.925605 
0.686954 0.319320 -0.925941 0.710498 0.301866 -0.926221 
0.735013 0.282763 -0.926432 0.760542 0.261945 -0.926563 
0.787128 0.239346 -0.926600 0.814812 0.214899 -0.926533 
0.843639 0.188540 -0.926347 0.873652 0.160201 -0.926032 
0.904892 0.129817 -0.925573 0.937403 0.097323 -0.924961 
0.971227 0.062651 -0.924181 1.006409 0.025737 -0.923221 
-1.002580 0.028331 -0.826780 -0.919414 0.035416 -0.829901 
-0.841282 0.042259 -0.833262 -0.768007 0.048875 -0.836840 
-0.699412 0.055276 -0.840612 -0.635318 0.061476 -0.844554 
-0.575547 0.067488 -0.848644 -0.519921 0.073324 -0.852856 
-0.468262 0.078999 -0.857170 -0.420393 0.084526 -0.861559 
-0.376136 0.089917 -0.866003 -0.335312 0.095187 -0.870476 
-0.297744 0.100347 -0.874956 -0.263254 0.105412 -0.879419 
-0.231664 0.110395 -0.883843 -0.202795 0.115309 -0.888202 
-0.176471 0.120166 -0.892475 -0.152513 0.124982 -0.896637 
-0.130744 0.129768 -0.900666 -0.110984 0.134537 -0.904538 
-0.093057 0.139304 -0.908229 -0.076785 0.144081 -0.911717 
-0.061989 0.148882 -0.914977 -0.048492 0.153719 -0.917987 
-0.036115 0.158606 -0.920723 -0.024682 0.163557 -0.923161 
-0.014013 0.168584 -0.925279 -0.003931 0.173700 -0.927052 
0.005741 0.178920 -0.928458 0.015182 0.184256 -0.929473 
0.024570 0.189721 -0.930074 0.034053 0.195325 -0.930245 
0.043661 0.201061 -0.930002 0.053394 0.206921 -0.929371 
0.063252 0.212895 -0.928376 0.073235 0.218973 -0.927041 
0.083343 0.225146 -0.925390 0.093577 0.231403 -0.923449 
0.103937 0.237735 -0.921241 0.114423 0.244133 -0.918791 
0.125035 0.250587 -0.916124 0.135773 0.257087 -0.913263 
0.146637 0.263624 -0.910234 0.157628 0.270188 -0.907061 
0.168746 0.276769 -0.903768 0.179990 0.283358 -0.900381 
0.191362 0.289945 -0.896922 0.202860 0.296521 -0.893417 
0.214487 0.303076 -0.889891 0.226240 0.309600 -0.886367 
0.238121 0.316083 -0.882870 0.250131 0.322517 -0.879425 
0.262268 0.328891 -0.876056 0.274533 0.335196 -0.872787 
0.286926 0.341422 -0.869644 0.299448 0.347559 -0.866650 
0.312099 0.353598 -0.863830 0.324879 0.359530 -0.861208 
0.337787 0.365344 -0.858809 0.350824 0.371031 -0.856658 
0.363991 0.376581 -0.854778 0.377294 0.381971 -0.853188 
0.390769 0.387118 -0.851875 0.404456 0.391926 -0.850820 
0.418398 0.396300 -0.850004 0.432636 0.400143 -0.849409 
0.447212 0.403358 -0.849014 0.462168 0.405850 -0.848803 
0.477546 0.407522 -0.848754 0.493386 0.408278 -0.848850 
0.509732 0.408023 -0.849072 0.526625 0.406659 -0.849399 
0.544106 0.404090 -0.849814 0.562217 0.400221 -0.850298 
0.581000 0.394955 -0.850830 0.600496 0.388196 -0.851394 
0.620748 0.379848 -0.851968 0.641797 0.369814 -0.852535 
0.663685 0.357999 -0.853075 0.686454 0.344306 -0.853570 
0.710145 0.328638 -0.854000 0.734799 0.310901 -0.854347 
0.760460 0.290997 -0.854591 0.787168 0.268831 -0.854713 
0.814965 0.244305 -0.854695 0.843893 0.217325 -0.854518 
0.873993 0.187793 -0.854162 0.905308 0.155614 -0.853608 
0.937880 0.120691 -0.852838 0.971748 0.082929 -0.851832 
1.006957 0.042230 -0.850572 -1.000069 0.033704 -0.748634 
-0.917474 0.032644 -0.752212 -0.839867 0.031820 -0.756200 
-0.767071 0.031231 -0.760565 -0.698912 0.030877 -0.765270 
-0.635213 0.030757 -0.770280 -0.575797 0.030870 -0.775558 
-0.520491 0.031215 -0.781071 -0.469116 0.031791 -0.786782 
-0.421498 0.032598 -0.792655 -0.377460 0.033635 -0.798656 
-0.336827 0.034902 -0.804748 -0.299422 0.036396 -0.810895 
-0.265070 0.038118 -0.817064 -0.233594 0.040067 -0.823217 
-0.204820 0.042242 -0.829319 -0.178570 0.044642 -0.835336 
-0.154669 0.047266 -0.841230 -0.132941 0.050114 -0.846967 
-0.113210 0.053185 -0.852512 -0.095300 0.056478 -0.857827 
-0.079035 0.059993 -0.862879 -0.064240 0.063727 -0.867632 
-0.050737 0.067682 -0.872049 -0.038352 0.071855 -0.876096 
-0.026909 0.076247 -0.879737 -0.016231 0.080856 -0.882936 
-0.006142 0.085681 -0.885657 0.003533 0.090723 -0.887867 
0.012970 0.095979 -0.889527 0.022346 0.101450 -0.890604 
0.031807 0.107133 -0.891073 0.041383 0.113023 -0.890957 
0.051075 0.119113 -0.890289 0.060885 0.125397 -0.889104 
0.070813 0.131868 -0.887435 0.080860 0.138519 -0.885317 
0.091029 0.145344 -0.882783 0.101318 0.152337 -0.879868 
0.111730 0.159490 -0.876606 0.122266 0.166797 -0.873030 
0.132927 0.174251 -0.869174 0.143713 0.181846 -0.865073 
0.154626 0.189576 -0.860760 0.165667 0.197433 -0.856270 
0.176837 0.205411 -0.851636 0.188137 0.213503 -0.846893 
0.199568 0.221704 -0.842074 0.211130 0.230005 -0.837213 
0.222826 0.238401 -0.832345 0.234656 0.246885 -0.827504 
0.246622 0.255451 -0.822722 0.258723 0.264091 -0.818035 
0.270962 0.272799 -0.813477 0.283339 0.281569 -0.809080 
0.295855 0.290394 -0.804880 0.308512 0.299267 -0.800911 
0.321310 0.308182 -0.797205 0.334251 0.317133 -0.793798 
0.347335 0.326111 -0.790724 0.360564 0.335112 -0.788015 
0.373946 0.344108 -0.785697 0.387513 0.352997 -0.783754 
0.401307 0.361655 -0.782162 0.415368 0.369958 -0.780896 
0.429737 0.377783 -0.779930 0.444454 0.385008 -0.779240 
0.459559 0.391509 -0.778802 0.475094 0.397162 -0.778589 
0.491098 0.401845 -0.778578 0.507612 0.405433 -0.778743 
[...]
POINT_DATA 8281
SCALARS scalars float
LOOKUP_TABLE default
0.000000 0.000000 0.000000 0.000000 0.000000 0.000000 
0.000000 0.000000 0.000000 0.000000 0.000000 0.000000 
0.000000 0.000000 0.000000 0.000000 0.000000 0.000000 
0.000000 0.000000 0.000000 0.000000 0.000000 0.000000 
0.000000 0.000000 0.000000 0.000000 0.000000 0.000000 
0.000000 0.000000 0.000000 0.000000 0.000000 0.000000 
0.000000 0.000000 0.000000 0.000000 0.000000 0.000000 
0.000000 0.000000 0.000000 0.000000 0.000000 0.000000 
0.000000 0.000000 0.000000 0.000000 0.000000 0.000000 
0.000000 0.000000 0.000000 0.000000 0.000000 0.000000 
0.000000 0.000000 0.000000 0.000000 0.000000 0.000000 
0.000000 0.000000 0.000000 0.000000 0.000000 0.000000 
0.000000 0.000000 0.000000 0.000000 0.000000 0.000000 
0.000000 0.000000 0.000000 0.000000 0.000000 0.000000 
0.000000 0.000000 0.000000 0.000000 0.000000 0.000000 
0.000000 0.000000 0.089051 0.083180 0.074677 0.063808 
0.050878 0.036158 0.019856 0.002124 -0.016922 -0.037158 
-0.058398 -0.080319 -0.102356 -0.123556 -0.142385 -0.156446 
-0.162126 -0.154160 -0.125173 -0.065349 0.037446 0.196572 
0.423801 0.724196 1.089023 1.489122 1.873719 2.179960 
2.353246 2.369208 2.312263 2.249883 2.181760 2.107727 
2.027745 1.941885 1.850296 1.753190 1.650815 1.543439 
1.431327 1.314733 1.193888 1.068991 0.940211 0.807685 
0.671526 0.531837 0.388721 0.242309 0.092792 -0.059545 
-0.214268 -0.370733 -0.528008 -0.684782 -0.839251 -0.988992 
-1.130815 -1.260607 -1.568393 -1.868143 -2.142482 -2.372075 
-2.537993 -2.624954 -2.624748 -2.538684 -2.378042 -2.162107 
-1.914394 -1.658341 -1.413787 -1.195003 -1.010310 -0.862826 
-0.751766 -0.673797 -0.624177 -0.597576 -0.588580 -0.591950 
-0.602694 -0.616020 -0.627226 -0.631563 -0.624113 -0.599737 
-0.553138 0.000000 0.000000 0.082267 0.103802 0.119074 
0.127357 0.128669 0.123472 0.112406 0.096117 0.075187 
0.050132 0.021467 -0.010180 -0.043892 -0.078206 -0.110748 
-0.137706 -0.153122 -0.147953 -0.108960 -0.017608 0.150516 
0.424770 0.835353 1.404015 2.128520 2.963764 3.809700 
4.522201 4.956314 5.026659 4.700159 4.379567 4.069988 
3.774570 3.494979 3.231804 2.984898 2.753631 2.537085 
2.334189 2.143814 1.964837 1.796175 1.636822 1.485853 
1.342444 1.205875 1.075538 0.950947 0.831749 0.717736 
0.608865 0.505283 0.407355 0.315698 0.231224 0.155184 
0.089216 0.035391 -0.003739 -0.358159 -0.749535 -1.169775 
-1.605441 -2.036840 -2.438268 -2.780200 -3.033785 -3.177002 
-3.200531 -3.110835 -2.928818 -2.684491 -2.409930 -2.133215 
-1.874972 -1.647603 -1.456384 -1.301352 -1.179208 -1.084838 
-1.012357 -0.955735 -0.909104 -0.866875 -0.823745 -0.774672 
-0.714877 -0.639909 0.000000 0.000000 0.075355 0.121553 
0.158866 0.185788 0.202025 0.208067 0.204786 0.193168 
0.174158 0.148640 0.117485 0.081705 0.042671 0.002465 
-0.035632 -0.066438 -0.081890 -0.069752 -0.012000 0.116911 
0.351358 0.734182 1.312304 2.124820 3.180184 4.423641 
5.708577 6.802032 7.453112 7.507345 6.889415 6.275327 
5.687510 5.139410 4.637574 4.183740 3.776589 3.413045 
3.089184 2.800818 2.543848 2.314459 2.109216 1.925093 
1.759472 1.610122 1.475170 1.353072 1.242582 1.142733 
1.052815 0.972364 0.901147 0.839158 0.786611 0.743930 
0.711740 0.690841 0.682177 0.686770 0.348988 -0.030737 
-0.453351 -0.917241 -1.416336 -1.937901 -2.460593 -2.953861 
-3.380057 -3.700279 -3.883326 -3.914902 -3.802749 -3.574768 
-3.270859 -2.932486 -2.594332 -2.280257 -2.003195 -1.767335 
-1.570967 -1.409009 -1.274835 -1.161423 -1.061983 -0.970252 
-0.880608 -0.788097 -0.688469 0.000000 0.000000 0.070174 
0.137164 0.193696 0.237796 0.268901 0.287409 0.294247 
0.290563 0.277545 0.256369 0.228259 0.194642 0.157414 
0.119339 0.084628 0.059768 0.054673 0.084245 0.170360 
0.344166 0.648158 1.136690 1.872071 2.911174 4.276017 
5.905712 7.605337 9.040347 9.836820 9.771976 8.828016 
7.882167 6.986649 6.170224 5.444323 4.809245 4.259061 
3.784952 3.377270 3.026675 2.724690 2.463908 2.238006 
2.041675 1.870503 1.720857 1.589765 1.474816 1.374073 
1.286003 1.209412 1.143398 1.087306 1.040693 1.003288 
0.974953 0.955643 0.945349 0.944040 0.951578 0.641236 
0.300239 -0.076414 -0.493472 -0.954252 -1.458795 -2.001305 
-2.567090 -3.129815 -3.650738 -4.082127 -4.376308 -4.498912 
-4.440988 -4.223247 -3.889418 -3.492350 -3.080153 -2.687874 
-2.335649 -2.031165 -1.773645 -1.557549 -1.375263 -1.218760 
-1.080483 -0.953740 -0.832836 -0.713078 0.000000 0.000000 
0.068081 0.152130 0.225054 0.284718 0.330390 0.362340 
0.381438 0.388867 0.385946 0.374075 0.354802 0.329982 
0.302071 0.274566 0.252643 0.244085 0.260572 0.319464 
0.446145 0.676859 1.061609 1.665660 2.566242 3.837549 
5.513504 7.520780 9.600393 11.293323 12.094126 11.745171 
10.424112 9.117525 7.910549 6.842957 5.923958 5.145576 
4.492011 3.945232 3.487879 3.104540 2.782115 2.509757 
2.278613 2.081523 1.912721 1.767581 1.642392 1.534185 
1.440584 1.359695 1.290013 1.230342 1.179736 1.137440 
1.102844 1.075434 1.054741 1.040288 1.031540 1.027837 
0.741893 0.437769 0.108722 -0.252565 -0.653504 -1.100660 
-1.598066 -2.144563 -2.730069 -3.331332 -3.908836 -4.407929 
-4.767491 -4.936540 -4.892953 -4.653687 -4.269132 -3.804807 
-3.321434 -2.862725 -2.452846 -2.100114 -1.802625 -1.553183 
-1.342665 -1.161946 -1.002823 -0.858352 -0.722888 0.000000 
0.000000 0.069891 0.168206 0.255415 0.329479 0.389632 
0.436050 0.469527 0.491227 0.502548 0.505085 0.500699 
0.491705 0.481180 0.473449 0.474784 0.494431 0.546065 
0.649818 0.835027 1.143688 1.634173 2.383570 3.484232 
5.025029 7.041703 9.424369 11.810875 13.586429 14.139386 
13.274789 11.533054 9.876011 8.403460 7.147853 6.102662 
5.243587 4.541155 3.967002 3.496401 3.108859 2.787853 
2.520252 2.295701 2.106046 1.944873 1.807121 1.688790 
1.586704 1.498334 1.421660 1.355057 1.297211 1.247050 
1.203680 1.166337 1.134340 1.107051 1.083826 1.063980 
1.046749 0.778942 0.503028 0.211269 -0.104672 -0.453728 
-0.845121 -1.287560 -1.787570 -2.346545 -2.956220 -3.592928 
-4.212539 -4.750302 -5.130916 -5.290514 -5.202593 -4.891718 
-4.424079 -3.881057 -3.333193 -2.826903 -2.384311 -2.009868 
-1.697926 -1.438479 -1.220632 -1.034324 -0.871006 -0.723754 
0.000000 0.000000 0.076030 0.187078 0.287513 0.375588 
0.450648 0.512874 0.563036 0.602318 0.632227 0.654587 
0.671640 0.686262 0.702307 0.725155 0.762507 0.825551 
0.930642 1.101683 1.373382 1.795393 2.436758 3.388310 
4.756742 6.636531 9.038039 11.760908 14.274632 15.798308 
15.727873 14.108372 11.972136 10.055882 8.431354 7.097734 
6.020984 5.157404 4.465025 3.907892 3.456871 3.089021 
2.786536 2.535668 2.325818 2.148788 1.998220 1.869147 
1.757677 1.660732 1.575869 1.501132 1.434942 1.376015 
1.323287 1.275863 1.232971 1.193917 1.158054 1.124751 
1.093359 1.063195 0.806539 0.549640 0.283955 0.000625 
-0.309817 -0.657556 -1.053272 -1.507297 -2.027668 -2.616469 
-3.263963 -3.940915 -4.591914 -5.136017 -5.482448 -5.562209 
-5.360762 -4.927831 -4.354936 -3.737651 -3.147552 -2.623999 
-2.179986 -1.812348 -1.510387 -1.261314 -1.053019 -0.875168 
-0.719422 0.000000 0.000000 0.086719 0.210226 0.323917 
0.426485 0.517530 0.597368 0.666874 0.727370 0.780589 
0.828725 0.874575 0.921809 0.975385 1.042201 1.132036 
1.258950 1.443304 1.714621 2.115473 2.706261 3.569706 
4.811096 6.544096 8.841816 11.627873 14.519250 16.761084 
17.507475 16.417194 13.952006 11.593362 9.611666 8.007527 
6.733184 5.728010 4.934980 4.306345 3.804280 3.399633 
3.070220 2.799231 2.573913 2.384557 2.223726 2.085688 
1.965991 1.861157 1.768441 1.685670 1.611101 1.543333 
1.481220 1.423819 1.370335 1.320087 1.272468 1.226923 
1.182921 1.139935 1.097430 0.845033 0.598905 0.349654 
0.087982 -0.195823 -0.512277 -0.872845 -1.289656 -1.774356 
-2.335433 -2.973124 -3.671303 -4.387425 -5.045622 -5.543007 
-5.778337 -5.696529 -5.320138 -4.740026 -4.071761 -3.411918 
-2.818572 -2.314438 -1.899350 -1.562035 -1.287792 -1.062434 
-0.873841 -0.712288 0.000000 0.000000 0.102106 0.238909 
0.366868 0.485225 0.593973 0.693728 0.785641 0.871358 
0.953054 1.033540 1.116483 1.206757 1.310987 1.438352 
1.601783 1.819700 2.118500 2.536004 3.125879 3.962335 
5.142361 6.777887 8.961185 11.677686 14.656651 17.246193 
18.553329 17.985033 15.745103 12.665636 10.403685 8.608243 
7.206872 6.118919 5.272715 4.610350 4.087138 3.669350 
3.331770 3.055572 2.826665 2.634450 2.470895 2.329872 
2.206671 2.097643 1.999942 1.911333 1.830052 1.754696 
1.684143 1.617489 1.553997 1.493059 1.434159 1.376850 
1.320732 1.265427 1.210570 1.155794 0.901178 0.658708 
0.417992 0.169212 -0.097589 -0.393092 -0.729088 -1.118569 
-1.575134 -2.111114 -2.733377 -3.435658 -4.187195 -4.920959 
-5.531449 -5.896439 -5.926059 -5.612687 -5.039103 -4.335019 
-3.619507 -2.968789 -2.415276 -1.961815 -1.596594 -1.303090 
-1.065170 -0.869085 -0.703877 0.000000 0.000000 0.122336 
0.274190 0.418225 0.554332 0.683027 0.805391 0.923056 
1.038231 1.153816 1.273589 1.402530 1.547300 1.716964 
1.924041 2.186028 2.527568 2.983423 3.602255 4.450639 
5.615037 7.195573 9.278009 11.862170 14.734286 17.341255 
18.859598 18.628220 16.663719 13.660408 10.471710 8.630870 
7.224992 6.152667 5.331089 4.696441 4.200931 3.809224 
3.495300 3.239973 3.029032 2.851887 2.700588 2.569129 
2.452934 2.348504 2.253144 2.164775 2.081786 2.002930 
1.927242 1.853976 1.782556 1.712535 1.643567 1.575376 
1.507735 1.440451 1.373344 1.306237 1.238948 0.976204 
0.731322 0.492708 0.249871 -0.007503 -0.290282 -0.610465 
-0.981504 -1.418108 -1.934925 -2.543109 -3.243297 -4.013933 
-4.796692 -5.487872 -5.952824 -6.075081 -5.819596 -5.258108 
-4.529577 -3.771689 -3.076516 -2.484999 -2.002555 -1.616808 
-1.309606 -1.063143 -0.862308 -0.695145 0.000000 0.000000 
0.147569 0.316934 0.479448 0.635712 0.786881 0.934662 
1.081367 1.230020 1.384549 1.550086 1.733409 1.943598 
2.192970 2.498410 2.883223 3.379585 4.031527 4.897774 
6.052357 7.577666 9.539037 11.924552 14.542598 16.923273 
18.367823 18.279026 16.588814 13.825950 10.738536 7.897669 
6.633735 5.689666 4.980375 4.443009 4.031627 3.712754 
3.461962 3.261351 3.097733 2.961331 2.844856 2.742844 
2.651186 2.566784 2.487306 2.411005 2.336583 2.263090 
2.189848 2.116390 2.042415 1.967745 1.892298 1.816059 
1.739060 1.661358 1.583018 1.504106 1.424669 1.344735 
1.068709 0.816332 0.574607 0.332192 0.078280 -0.198287 
-0.509732 -0.869836 -1.293995 -1.798297 -2.396623 -3.094190 
-3.875933 -4.690362 -5.436631 -5.973006 -6.164359 -5.954227 
-5.404215 -4.659272 -3.871233 -3.144467 -2.526411 -2.024261 
-1.625034 -1.309233 -1.057749 -0.854457 -0.686674 0.000000 
0.000000 0.177946 0.367784 0.551517 0.730496 0.906591 
1.082251 1.260624 1.445743 1.642805 1.858578 2.101981 
2.384892 2.723265 3.138623 3.659923 4.325613 5.185124 
6.297819 7.724926 9.506259 11.611208 13.863028 15.874751 
17.096041 17.052420 15.653152 13.266400 10.475697 7.778550 
5.457701 4.727102 4.193440 3.803129 3.517140 3.306920 
3.151473 3.035263 2.946735 2.877250 2.820330 2.771109 
2.725942 2.682111 2.637619 2.591026 2.541333 2.487890 
2.430321 2.368469 2.302352 2.232118 2.158015 2.080364 
1.999530 1.915901 1.829872 1.741826 1.652119 1.561070 
1.468952 1.175516 0.911605 0.662656 0.416330 0.161190 
-0.114326 -0.422737 -0.778134 -1.196405 -1.694556 -2.288152 
-2.985228 -3.774757 -4.609637 -5.391079 -5.973150 -6.208846 
-6.027693 -5.484671 -4.728946 -3.921923 -3.175981 -2.542493 
-2.029466 -1.623280 -1.303450 -1.049993 -0.846144 -0.678791 
0.000000 0.000000 0.213526 0.427061 0.634796 0.838812 
1.041705 1.246703 1.457845 1.680230 1.920372 2.186682 
2.490133 2.845119 3.270559 3.791145 4.438497 5.251448 
6.273762 7.545854 9.085063 10.848925 12.684540 14.292939 
15.269857 15.265430 14.185726 12.258219 9.894004 7.484523 
5.287950 3.426235 3.083424 2.849950 2.697236 2.603671 
2.552783 2.531927 2.531338 2.543446 2.562367 2.583541 
2.603448 2.619404 2.629404 2.631996 2.626190 2.611374 
2.587256 2.553809 2.511221 2.459860 2.400229 2.332943 
2.258687 2.178196 2.092226 2.001531 1.906841 1.808847 
1.708184 1.605415 1.291822 1.013535 0.754352 0.500851 
0.240868 -0.037661 -0.347628 -0.703464 -1.121454 -1.619192 
-2.213179 -2.912883 -3.709180 -4.556813 -5.357414 -5.962278 
-6.218230 -6.048512 -5.506261 -4.744015 -3.928248 -3.174812 
-2.536286 -2.020509 -1.613238 -1.293394 -1.040571 -0.837741 
-0.671644 0.000000 0.000000 0.254191 0.494624 0.728809 
0.959456 1.189806 1.423792 1.666250 1.923199 2.202227 
2.512976 2.867760 3.282279 3.776339 4.374292 5.104554 
5.996889 7.075170 8.342422 9.755841 11.195706 12.447052 
13.228517 13.289753 12.536150 11.084049 9.196047 7.156490 
5.181229 3.395255 1.854094 1.748849 1.704026 1.705389 
1.741311 1.802228 1.880226 1.968737 2.062303 2.156399 
2.247295 2.331953 2.407936 2.473343 2.526742 2.567126 
2.593863 2.606655 2.605495 2.590636 2.562548 2.521884 
2.469449 2.406159 2.333016 2.251071 2.161394 2.065046 
1.963054 1.856383 1.745921 1.411177 1.117064 0.845813 
0.582920 0.315457 0.030799 -0.284383 -0.644885 -1.067332 
-1.569662 -2.168711 -2.874209 -3.677027 -4.531319 -5.337286 
-5.944278 -6.198002 -6.022888 -5.475195 -4.710213 -3.895151 
-3.144938 -2.510788 -1.999507 -1.596304 -1.279912 -1.029931 
-0.829426 -0.665248 0.000000 0.000000 0.299514 0.569663 
0.831953 1.089520 1.346076 1.606069 1.874893 2.159153 
2.466999 2.808513 3.196131 3.644970 4.172861 4.799567 
5.544361 6.420537 7.425224 8.523667 9.630981 10.602101 
11.248068 11.390496 10.936186 9.922729 8.498588 6.854987 
5.160278 3.529343 2.026199 0.682291 0.701757 0.758846 
0.846362 0.957741 1.086992 1.228662 1.377805 1.529969 
1.681180 1.827936 1.967192 2.096352 2.213253 2.316147 
2.403687 2.474902 2.529172 2.566206 2.586015 2.588883 
2.575337 2.546119 2.502150 2.444498 2.374341 2.292935 
2.201570 2.101538 1.994101 1.880449 1.525583 1.215751 
0.931853 0.658409 0.381761 0.088713 -0.234521 -0.603111 
-1.033960 -1.545112 -2.153188 -2.867091 -3.675924 -4.531002 
-5.329425 -5.919489 -6.150618 -5.955316 -5.397226 -4.633456 
-3.827819 -3.090398 -2.468867 -1.968336 -1.573603 -1.263597 
-1.018318 -0.821230 -0.659515 0.000000 0.000000 0.348607 
0.650456 0.941187 1.224065 1.503034 1.782827 2.069114 
2.368691 2.689695 3.041807 3.436368 3.886235 4.405057 
5.005468 5.695396 6.471663 7.310580 8.157224 8.918887 
9.471957 9.689580 9.484598 8.845062 7.837975 6.578935 
5.189716 3.767976 2.377851 1.056227 -0.174260 -0.102184 
-0.001529 0.123894 0.270082 0.432918 0.608264 0.792033 
0.980268 1.169209 1.355347 1.535471 1.706699 1.866497 
2.012691 2.143473 2.257390 2.353339 2.430557 2.488602 
2.527340 2.546927 2.547786 2.530586 2.496212 2.445739 
2.380390 2.301503 2.210483 2.108759 1.997741 1.625857 
1.302008 1.006147 0.722035 0.435388 0.132489 -0.200889 
-0.580261 -1.022702 -1.546094 -2.166255 -2.890180 -3.703506 
-4.552713 -5.330615 -5.885900 -6.076589 -5.849255 -5.277868 
-4.519750 -3.731506 -3.015149 -2.413182 -1.928615 -1.546003 
-1.244823 -1.005801 -0.813050 -0.654268 0.000000 0.000000 
0.399947 0.734116 1.051759 1.355946 1.650656 1.940772 
2.232101 2.531429 2.846567 3.186352 3.560461 3.978889 
4.450756 4.982040 5.571788 6.206610 6.854221 7.458562 
7.941102 8.213023 8.198282 7.858772 7.207457 6.301184 
5.218338 4.034930 2.809876 1.581939 0.375170 -0.791502 
-0.708147 -0.599360 -0.467105 -0.313885 -0.142646 0.043325 
0.240522 0.445326 0.654117 0.863365 1.069712 1.270028 
1.461457 1.641447 1.807763 1.958492 2.092048 2.207160 
2.302870 2.378528 2.433779 2.468563 2.483098 2.477870 
2.453615 2.411292 2.352050 2.277189 2.188111 2.086271 
1.702288 1.367554 1.061568 0.767622 0.470973 0.157480 
-0.187461 -0.579626 -1.036105 -1.574275 -2.208478 -2.942651 
-3.757333 -4.592520 -5.336311 -5.840093 -5.975452 -5.707777 
-5.122594 -4.375109 -3.611365 -2.922942 -2.346141 -1.881699 
-1.514139 -1.223769 -0.992292 -0.804670 -0.649248 0.000000 
0.000000 0.451206 0.816373 1.157084 1.475963 1.777038 
2.065493 2.347478 2.629971 2.920647 3.227688 3.559416 
3.923581 4.326051 4.768654 5.246003 5.741508 6.223654 
6.644683 6.944547 7.061800 6.949296 6.588109 5.992220 
5.201444 4.267069 3.237786 2.151364 1.033316 -0.098885 
-1.228150 -1.154850 -1.057443 -0.936630 -0.793805 -0.630983 
-0.450713 -0.255960 -0.049982 0.163796 0.381906 0.600931 
0.817598 1.028837 1.231824 1.424007 1.603118 1.767179 
1.914492 2.043644 2.153496 2.243186 2.312129 2.360014 
2.386810 2.392759 2.378366 2.344385 2.291783 2.221709 
2.135441 1.745508 1.404065 1.090676 0.788480 0.482487 
0.158259 -0.199073 -0.605410 -1.077617 -1.632120 -2.280989 
-3.023866 -3.834663 -4.645751 -5.341086 -5.778034 -5.846593 
-5.534077 -4.936968 -4.205453 -3.472311 -2.817229 -2.269848 
-1.828683 -1.478425 -1.200432 -0.977566 -0.795768 -0.644121 
0.000000 0.000000 0.499119 0.891475 1.248857 1.573433 
1.869653 2.143567 2.402293 2.653613 2.905663 3.166615 
3.444231 3.745147 4.073686 4.430052 4.807895 5.191569 
5.554037 5.856946 6.054544 6.101895 5.965366 5.631125 
5.107456 4.419896 3.602011 2.686322 1.698715 0.657504 
-0.423301 -1.527475 -1.473642 -1.396970 -1.297166 -1.174662 
-1.030604 -0.866792 -0.685588 -0.489795 -0.282529 -0.067084 
0.153187 0.374981 0.595124 0.810632 1.018749 1.216967 
1.403031 1.574939 1.730933 1.869497 1.989352 2.089457 
2.169013 2.227472 2.264542 2.280192 2.274652 2.248396 
2.202124 2.136720 1.747405 1.403908 1.086302 0.777891 
0.463639 0.128971 -0.241101 -0.662404 -1.151243 -1.722510 
-2.385069 -3.132971 -3.932173 -4.707005 -5.339040 -5.695782 
-5.689910 -5.331827 -4.726674 -4.016494 -3.318901 -2.701093 
-2.186099 -1.770408 -1.439075 -1.174654 -0.961274 -0.785923 
-0.638479 0.000000 0.000000 0.539443 0.952281 1.317511 
1.637202 1.917009 2.164764 2.389417 2.600300 2.806640 
3.017192 3.239822 3.480897 3.744318 4.030097 4.332500 
4.638096 4.924417 5.160343 5.309243 5.335021 5.209590 
4.918941 4.465096 3.863200 3.135399 2.304417 1.389286 
0.404425 -0.637774 -1.721210 -1.689625 -1.637011 -1.562253 
-1.464932 -1.345355 -1.204546 -1.044185 -0.866511 -0.674208 
-0.470267 -0.257852 -0.040184 0.179563 0.398342 0.613285 
0.821733 1.021253 1.209641 1.384908 1.545279 1.689179 
1.815231 1.922257 2.009281 2.075541 2.120495 2.143833 
2.145473 2.125558 2.084430 1.701856 1.360781 1.042128 
0.729605 0.408324 0.063736 -0.319079 -0.755602 -1.261128 
-1.848289 -2.521672 -3.268445 -4.045681 -4.770211 -5.324246 
-5.590106 -5.506281 -5.105323 -4.497446 -3.813606 -3.155234 
-2.577212 -2.096370 -1.707483 -1.396130 -1.146143 -0.942954 
-0.774628 -0.631845 0.000000 0.000000 0.567075 0.990637 
1.353034 1.656957 1.910295 2.123630 2.308456 2.476100 
2.637133 2.801051 2.975984 3.168281 3.381779 3.616709 
3.868248 4.125016 4.368046 4.571091 4.702985 4.732208 
4.632647 4.388545 3.996642 3.464703 2.807343 2.041178 
1.181272 0.240141 -0.770182 -1.833068 -1.823156 -1.794609 
-1.745666 -1.675174 -1.582665 -1.468389 -1.333297 -1.178982 
-1.007582 -0.821662 -0.624078 -0.417856 -0.206069 0.008258 
0.222216 0.433066 0.638263 0.835468 1.022542 1.197538 
1.358691 1.504401 1.633232 1.743904 1.835298 1.906464 
1.956623 1.985177 1.991708 1.975965 1.605071 1.270122 
0.953085 0.638245 0.311015 -0.042959 -0.438297 -0.889773 
-1.411095 -2.011755 -2.690897 -3.427668 -4.169954 -4.828815 
-5.291248 -5.459001 -5.297813 -4.859458 -4.254929 -3.601706 
-2.984902 -2.447843 -2.001843 -1.640314 -1.349487 -1.114495 
-0.922058 -0.761298 -0.623681 0.000000 0.000000 0.576379 
0.998068 1.346055 1.624543 1.844540 2.019923 2.164885 
2.292598 2.414674 2.541016 2.679756 2.837051 3.016595 
3.218773 3.439498 3.668945 3.890645 4.081583 4.213939 
4.258632 4.190042 3.990406 3.652245 3.177968 2.577034 
1.862147 1.046162 0.140996 -0.840759 -1.881388 -1.891158 
-1.885100 -1.860979 -1.817053 -1.752180 -1.665889 -1.558406 
-1.430633 -1.284087 -1.120806 -0.943232 -0.754084 -0.556237 
-0.352613 -0.146088 0.060570 0.264751 0.464022 0.656140 
0.839037 1.010820 1.169747 1.314215 1.442749 1.553992 
1.646705 1.719759 1.772141 1.802949 1.811385 1.455455 
1.129131 0.815494 0.499508 0.167014 -0.195961 -0.603448 
-1.069049 -1.604162 -2.214124 -2.891478 -3.606559 -4.298676 
-4.876114 -5.235576 -5.302036 -5.067865 -4.599551 -4.004500 
-3.385159 -2.810958 -2.314844 -1.903435 -1.569142 -1.298941 
-1.079234 -0.897978 -0.745297 -0.613403 0.000000 0.000000 