# vtk DataFile Version 1.0
vtk output
ASCII
DATASET POLYDATA
POINTS 8281 float
-1.008450 0.017065 -0.995453 -0.924189 0.043353 -0.997444 
-0.845058 0.068286 -0.999270 -0.770874 0.091907 -1.000936 
-0.701455 0.114264 -1.002449 -0.636620 0.135401 -1.003812 
-0.576187 0.155366 -1.005033 -0.519973 0.174204 -1.006117 
-0.467796 0.191961 -1.007068 -0.419475 0.208683 -1.007894 
-0.374828 0.224416 -1.008599 -0.333672 0.239205 -1.009189 
-0.295825 0.253098 -1.009669 -0.261105 0.266139 -1.010046 
-0.229331 0.278375 -1.010324 -0.200321 0.289851 -1.010510 
-0.173891 0.300614 -1.010609 -0.149861 0.310710 -1.010626 
-0.128049 0.320184 -1.010567 -0.108271 0.329082 -1.010439 
-0.090347 0.337451 -1.010245 -0.074095 0.345336 -1.009992 
-0.059331 0.352783 -1.009686 -0.045875 0.359839 -1.009331 
-0.033544 0.366549 -1.008935 -0.022156 0.372959 -1.008501 
-0.011530 0.379115 -1.008036 -0.001483 0.385063 -1.007546 
0.008167 0.390849 -1.007036 0.017602 0.396519 -1.006511 
0.027004 0.402118 -1.005977 0.036524 0.407683 -1.005440 
0.046191 0.413207 -1.004900 0.056003 0.418672 -1.004361 
0.065959 0.424062 -1.003824 0.076058 0.429359 -1.003290 
0.086296 0.434546 -1.002761 0.096673 0.439606 -1.002239 
0.107188 0.444522 -1.001726 0.117837 0.449277 -1.001223 
0.128620 0.453853 -1.000732 0.139535 0.458234 -1.000254 
0.150580 0.462402 -0.999792 0.161754 0.466341 -0.999346 
0.173054 0.470032 -0.998919 0.184479 0.473460 -0.998513 
0.196028 0.476606 -0.998128 0.207699 0.479455 -0.997768 
0.219489 0.481987 -0.997432 0.231398 0.484187 -0.997124 
0.243423 0.486038 -0.996845 0.255564 0.487521 -0.996596 
0.267817 0.488621 -0.996379 0.280182 0.489320 -0.996196 
0.292657 0.489600 -0.996048 0.305240 0.489445 -0.995938 
0.317929 0.488838 -0.995866 0.330723 0.487761 -0.995835 
0.343620 0.486197 -0.995847 0.356619 0.484129 -0.995902 
0.369717 0.481541 -0.996003 0.382920 0.478411 -0.996150 
0.396266 0.474712 -0.996340 0.409797 0.470409 -0.996567 
0.423558 0.465471 -0.996827 0.437592 0.459866 -0.997114 
0.451944 0.453561 -0.997424 0.466657 0.446524 -0.997751 
0.481775 0.438723 -0.998092 0.497342 0.430124 -0.998440 
0.513403 0.420696 -0.998791 0.530000 0.410407 -0.999140 
0.547178 0.399224 -0.999482 0.564980 0.387115 -0.999812 
0.583451 0.374047 -1.000126 0.602635 0.359989 -1.000417 
0.622575 0.344907 -1.000682 0.643315 0.328770 -1.000916 
0.664899 0.311545 -1.001112 0.687371 0.293199 -1.001267 
0.710776 0.273701 -1.001376 0.735156 0.253019 -1.001434 
0.760556 0.231119 -1.001435 0.787019 0.207969 -1.001374 
0.814590 0.183537 -1.001248 0.843312 0.157792 -1.001051 
0.873229 0.130699 -1.000777 0.904386 0.102228 -1.000423 
0.936826 0.072346 -0.999982 0.970592 0.041020 -0.999451 
1.005730 0.008218 -0.998824 -1.005369 0.022785 -0.909004 
-0.921647 0.038972 -0.911597 -0.843007 0.054389 -0.914239 
-0.769269 0.069063 -0.916919 -0.700253 0.083023 -0.919629 
-0.635779 0.096298 -0.922358 -0.575668 0.108918 -0.925097 
-0.519739 0.120909 -0.927836 -0.467813 0.132302 -0.930565 
-0.419709 0.143126 -0.933276 -0.375248 0.153408 -0.935957 
-0.334249 0.163178 -0.938599 -0.296533 0.172465 -0.941193 
-0.261920 0.181297 -0.943729 -0.230230 0.189703 -0.946198 
-0.201283 0.197712 -0.948588 -0.174898 0.205353 -0.950892 
-0.150897 0.212654 -0.953099 -0.129099 0.219645 -0.955199 
-0.109324 0.226354 -0.957183 -0.091392 0.232809 -0.959040 
-0.075123 0.239040 -0.960763 -0.060338 0.245076 -0.962340 
-0.046856 0.250944 -0.963761 -0.034497 0.256675 -0.965018 
-0.023082 0.262296 -0.966101 -0.012430 0.267837 -0.966999 
-0.002362 0.273327 -0.967704 0.007302 0.278793 -0.968204 
0.016742 0.284266 -0.968492 0.026139 0.289773 -0.968557 
0.035642 0.295336 -0.968393 0.045280 0.300950 -0.968010 
0.055053 0.306602 -0.967421 0.064959 0.312277 -0.966642 
0.074999 0.317963 -0.965684 0.085171 0.323647 -0.964562 
0.095475 0.329316 -0.963291 0.105910 0.334956 -0.961882 
0.116475 0.340555 -0.960350 0.127169 0.346099 -0.958710 
0.137991 0.351575 -0.956973 0.148942 0.356971 -0.955155 
0.160020 0.362272 -0.953269 0.171224 0.367466 -0.951329 
0.182553 0.372540 -0.949347 0.194007 0.377480 -0.947339 
0.205586 0.382274 -0.945318 0.217288 0.386908 -0.943298 
0.229112 0.391369 -0.941291 0.241058 0.395644 -0.939313 
0.253125 0.399720 -0.937376 0.265313 0.403584 -0.935494 
0.277620 0.407222 -0.933682 0.290046 0.410622 -0.931952 
0.302590 0.413770 -0.930319 0.315251 0.416653 -0.928796 
0.328028 0.419259 -0.927398 0.340922 0.421573 -0.926136 
0.353930 0.423584 -0.925027 0.367053 0.425277 -0.924082 
0.380296 0.426630 -0.923312 0.393696 0.427588 -0.922708 
0.407295 0.428083 -0.922258 0.421136 0.428050 -0.921951 
0.435263 0.427423 -0.921772 0.449717 0.426135 -0.921711 
0.464541 0.424122 -0.921754 0.479779 0.421316 -0.921890 
0.495474 0.417652 -0.922105 0.511668 0.413065 -0.922389 
0.528404 0.407487 -0.922727 0.545725 0.400854 -0.923108 
0.563674 0.393099 -0.923520 0.582294 0.384157 -0.923950 
0.601627 0.373960 -0.924386 0.621717 0.362445 -0.924816 
0.642606 0.349543 -0.925226 0.664337 0.335190 -0.925605 
0.686954 0.319320 -0.925941 0.710498 0.301866 -0.926221 
0.735013 0.282763 -0.926432 0.760542 0.261945 -0.926563 
0.787128 0.239346 -0.926600 0.814812 0.214899 -0.926533 
0.843639 0.188540 -0.926347 0.873652 0.160201 -0.926032 
0.904892 0.129817 -0.925573 0.937403 0.097323 -0.924961 
0.971227 0.062651 -0.924181 1.006409 0.025737 -0.923221 
-1.002580 0.028331 -0.826780 -0.919414 0.035416 -0.829901 
-0.841282 0.042259 -0.833262 -0.768007 0.048875 -0.836840 
-0.699412 0.055276 -0.840612 -0.635318 0.061476 -0.844554 
-0.575547 0.067488 -0.848644 -0.519921 0.073324 -0.852856 
-0.468262 0.078999 -0.857170 -0.420393 0.084526 -0.861559 
-0.376136 0.089917 -0.866003 -0.335312 0.095187 -0.870476 
-0.297744 0.100347 -0.874956 -0.263254 0.105412 -0.879419 
-0.231664 0.110395 -0.883843 -0.202795 0.115309 -0.888202 
-0.176471 0.120166 -0.892475 -0.152513 0.124982 -0.896637 
-0.130744 0.129768 -0.900666 -0.110984 0.134537 -0.904538 
-0.093057 0.139304 -0.908229 -0.076785 0.144081 -0.911717 
-0.061989 0.148882 -0.914977 -0.048492 0.153719 -0.917987 
-0.036115 0.158606 -0.920723 -0.024682 0.163557 -0.923161 
-0.014013 0.168584 -0.925279 -0.003931 0.173700 -0.927052 
0.005741 0.178920 -0.928458 0.015182 0.184256 -0.929473 
0.024570 0.189721 -0.930074 0.034053 0.195325 -0.930245 
0.043661 0.201061 -0.930002 0.053394 0.206921 -0.929371 
0.063252 0.212895 -0.928376 0.073235 0.218973 -0.927041 
0.083343 0.225146 -0.925390 0.093577 0.231403 -0.923449 
0.103937 0.237735 -0.921241 0.114423 0.244133 -0.918791 
0.125035 0.250587 -0.916124 0.135773 0.257087 -0.913263 
0.146637 0.263624 -0.910234 0.157628 0.270188 -0.907061 
0.168746 0.276769 -0.903768 0.179990 0.283358 -0.900381 
0.191362 0.289945 -0.896922 0.202860 0.296521 -0.893417 
0.214487 0.303076 -0.889891 0.226240 0.309600 -0.886367 
0.238121 0.316083 -0.882870 0.250131 0.322517 -0.879425 
0.262268 0.328891 -0.876056 0.274533 0.335196 -0.872787 
0.286926 0.341422 -0.869644 0.299448 0.347559 -0.866650 
0.312099 0.353598 -0.863830 0.324879 0.359530 -0.861208 
0.337787 0.365344 -0.858809 0.350824 0.371031 -0.856658 
0.363991 0.376581 -0.854778 0.377294 0.381971 -0.853188 
0.390769 0.387118 -0.851875 0.404456 0.391926 -0.850820 
0.418398 0.396300 -0.850004 0.432636 0.400143 -0.849409 
0.447212 0.403358 -0.849014 0.462168 0.405850 -0.848803 
0.477546 0.407522 -0.848754 0.493386 0.408278 -0.848850 
0.509732 0.408023 -0.849072 0.526625 0.406659 -0.849399 
0.544106 0.404090 -0.849814 0.562217 0.400221 -0.850298 
0.581000 0.394955 -0.850830 0.600496 0.388196 -0.851394 
0.620748 0.379848 -0.851968 0.641797 0.369814 -0.852535 
0.663685 0.357999 -0.853075 0.686454 0.344306 -0.853570 
0.710145 0.328638 -0.854000 0.734799 0.310901 -0.854347 
0.760460 0.290997 -0.854591 0.787168 0.268831 -0.854713 
0.814965 0.244305 -0.854695 0.843893 0.217325 -0.854518 
0.873993 0.187793 -0.854162 0.905308 0.155614 -0.853608 
0.937880 0.120691 -0.852838 0.971748 0.082929 -0.851832 
1.006957 0.042230 -0.850572 -1.000069 0.033704 -0.748634 
-0.917474 0.032644 -0.752212 -0.839867 0.031820 -0.756200 
-0.767071 0.031231 -0.760565 -0.698912 0.030877 -0.765270 
-0.635213 0.030757 -0.770280 -0.575797 0.030870 -0.775558 
-0.520491 0.031215 -0.781071 -0.469116 0.031791 -0.786782 
-0.421498 0.032598 -0.792655 -0.377460 0.033635 -0.798656 
-0.336827 0.034902 -0.804748 -0.299422 0.036396 -0.810895 
-0.265070 0.038118 -0.817064 -0.233594 0.040067 -0.823217 
-0.204820 0.042242 -0.829319 -0.178570 0.044642 -0.835336 
-0.154669 0.047266 -0.841230 -0.132941 0.050114 -0.846967 
-0.113210 0.053185 -0.852512 -0.095300 0.056478 -0.857827 
-0.079035 0.059993 -0.862879 -0.064240 0.063727 -0.867632 
-0.050737 0.067682 -0.872049 -0.038352 0.071855 -0.876096 
-0.026909 0.076247 -0.879737 -0.016231 0.080856 -0.882936 
-0.006142 0.085681 -0.885657 0.003533 0.090723 -0.887867 
0.012970 0.095979 -0.889527 0.022346 0.101450 -0.890604 
0.031807 0.107133 -0.891073 0.041383 0.113023 -0.890957 
0.051075 0.119113 -0.890289 0.060885 0.125397 -0.889104 
0.070813 0.131868 -0.887435 0.080860 0.138519 -0.885317 
0.091029 0.145344 -0.882783 0.101318 0.152337 -0.879868 
0.111730 0.159490 -0.876606 0.122266 0.166797 -0.873030 
0.132927 0.174251 -0.869174 0.143713 0.181846 -0.865073 
0.154626 0.189576 -0.860760 0.165667 0.197433 -0.856270 
0.176837 0.205411 -0.851636 0.188137 0.213503 -0.846893 
0.199568 0.221704 -0.842074 0.211130 0.230005 -0.837213 
0.222826 0.238401 -0.832345 0.234656 0.246885 -0.827504 
0.246622 0.255451 -0.822722 0.258723 0.264091 -0.818035 
0.270962 0.272799 -0.813477 0.283339 0.281569 -0.809080 
0.295855 0.290394 -0.804880 0.308512 0.299267 -0.800911 
0.321310 0.308182 -0.797205 0.334251 0.317133 -0.793798 
0.347335 0.326111 -0.790724 0.360564 0.335112 -0.788015 
0.373946 0.344108 -0.785697 0.387513 0.352997 -0.783754 
0.401307 0.361655 -0.782162 0.415368 0.369958 -0.780896 
0.429737 0.377783 -0.779930 0.444454 0.385008 -0.779240 
0.459559 0.391509 -0.778802 0.475094 0.397162 -0.778589 
0.491098 0.401845 -0.778578 0.507612 0.405433 -0.778743 
[...]
POINT_DATA 8281
SCALARS scalars float
LOOKUP_TABLE default
0.000000 0.000000 0.000000 0.000000 0.000000 0.000000 
0.000000 0.000000 0.000000 0.000000 0.000000 0.000000 
0.000000 0.000000 0.000000 0.000000 0.000000 0.000000 
0.000000 0.000000 0.000000 0.000000 0.000000 0.000000 
0.000000 0.000000 0.000000 0.000000 0.000000 0.000000 
0.000000 0.000000 0.000000 0.000000 0.000000 0.000000 
0.000000 0.000000 0.000000 0.000000 0.000000 0.000000 
0.000000 0.000000 0.000000 0.000000 0.000000 0.000000 
0.000000 0.000000 0.000000 0.000000 0.000000 0.000000 
0.000000 0.000000 0.000000 0.000000 0.000000 0.000000 
0.000000 0.000000 0.000000 0.000000 0.000000 0.000000 
0.000000 0.000000 0.000000 0.000000 0.000000 0.000000 
0.000000 0.000000 0.000000 0.000000 0.000000 0.000000 
0.000000 0.000000 0.000000 0.000000 0.000000 0.000000 
0.000000 0.000000 0.000000 0.000000 0.000000 0.000000 
0.000000 0.000000 -1.706102 -1.713824 -1.683199 -1.628247 
-1.561880 -1.494104 -1.431726 -1.378859 -1.337670 -1.309049 
-1.293098 -1.289432 -1.297312 -1.315642 -1.342834 -1.376566 
-1.413400 -1.448285 -1.473968 -1.480422 -1.454561 -1.380689 
-1.242425 -1.026865 -0.731209 -0.370458 0.017707 0.376295 
0.643424 0.773208 0.780944 0.706249 0.568010 0.381952 
0.160831 -0.085275 -0.348645 -0.623594 -0.906174 -1.193902 
-1.485535 -1.780875 -2.080622 -2.386261 -2.699978 -3.024618 
-3.363668 -3.721267 -4.102247 -4.512200 -4.957572 -5.445773 
-5.985325 -6.586022 -7.259104 -8.017442 -8.875710 -9.850524 
-10.960505 -12.226216 -13.681458 -15.066787 -16.272377 -17.172649 
-17.644157 -17.590776 -16.969891 -15.809782 -14.209632 -12.320111 
-10.311229 -8.339391 -6.524193 -4.939352 -3.615859 -2.552129 
-1.725980 -1.105064 -0.654382 -0.340887 -0.135796 -0.015363 
0.039245 0.042531 0.005435 -0.063850 -0.159073 -0.275133 
-0.407294 0.000000 0.000000 -1.651022 -1.661791 -1.638697 
-1.593851 -1.538492 -1.481492 -1.429050 -1.385059 -1.351683 
-1.329900 -1.319904 -1.321334 -1.333358 -1.354613 -1.382992 
-1.415293 -1.446682 -1.469965 -1.474708 -1.446288 -1.365227 
-1.207478 -0.946856 -0.561279 -0.044145 0.580260 1.244015 
1.838361 2.242813 2.373288 2.197244 1.946033 1.645858 
1.317733 0.977526 0.636503 0.302091 -0.021328 -0.331699 
-0.628685 -0.913196 -1.187021 -1.452576 -1.712726 -1.970674 
-2.229908 -2.494185 -2.767549 -3.054380 -3.359463 -3.688084 
-4.046146 -4.440307 -4.878142 -5.368324 -5.920828 -6.547138 
-7.260457 -8.075883 -9.010498 -10.252694 -11.542772 -12.823650 
-14.010972 -14.993548 -15.642612 -15.832865 -15.473735 -14.542002 
-13.101094 -11.294469 -9.312316 -7.345321 -5.545159 -4.004855 
-2.759914 -1.802441 -1.098873 -0.605071 -0.276437 -0.073349 
0.036772 0.079375 0.073656 0.033777 -0.029917 -0.109812 
-0.200107 -0.296077 0.000000 0.000000 -1.509495 -1.521366 
-1.506201 -1.473554 -1.432312 -1.389611 -1.350575 -1.318541 
-1.295450 -1.282226 -1.279051 -1.285507 -1.300582 -1.322538 
-1.348614 -1.374550 -1.393880 -1.396957 -1.369691 -1.292088 
-1.136895 -0.869175 -0.448546 0.162922 0.983286 1.982402 
3.051491 3.997280 4.593639 4.685916 4.210792 3.662534 
3.088598 2.522831 1.986656 1.491636 1.042260 0.638353 
0.276926 -0.046527 -0.337177 -0.600333 -0.841153 -1.064503 
-1.274907 -1.476557 -1.673360 -1.868998 -2.066995 -2.270792 
-2.483820 -2.709572 -2.951672 -3.213943 -3.500466 -3.815628 
-4.164156 -4.551118 -4.981879 -5.461970 -6.241255 -7.078720 
-7.962703 -8.867816 -9.749677 -10.540753 -11.150401 -11.473252 
-11.409291 -10.894143 -9.929733 -8.598947 -7.051515 -5.463902 
-3.992261 -2.740288 -1.751577 -1.021366 -0.515933 -0.190211 
0.000472 0.094484 0.122051 0.105674 0.061467 0.000683 
-0.068909 -0.141919 -0.214500 0.000000 0.000000 -1.314707 
-1.325803 -1.317312 -1.296229 -1.269032 -1.240985 -1.215961 
-1.196553 -1.184312 -1.179964 -1.183558 -1.194508 -1.211511 
-1.232324 -1.253364 -1.269075 -1.270999 -1.246460 -1.176765 
-1.034925 -0.783118 -0.370803 0.264150 1.186209 2.436413 
3.982445 5.653927 7.114497 7.953514 7.903890 6.944777 
5.914289 4.905552 3.974562 3.147615 2.430985 1.819262 
1.301291 0.863901 0.493990 0.179554 -0.089920 -0.323400 
-0.528426 -0.711296 -0.877260 -1.030714 -1.175357 -1.314340 
-1.450374 -1.585830 -1.722808 -1.863200 -2.008729 -2.160976 
-2.321396 -2.491315 -2.671903 -2.864134 -3.068707 -3.537572 
-4.040761 -4.581683 -5.158847 -5.762699 -6.371490 -6.946739 
-7.430009 -7.744255 -7.804070 -7.537585 -6.916335 -5.979779 
-4.836755 -3.636373 -2.521556 -1.590652 -0.884107 -0.394482 
-0.086744 0.083145 0.156478 0.166654 0.138314 0.088515 
0.028517 -0.034512 -0.096140 -0.153678 0.000000 0.000000 
-1.099097 -1.108024 -1.104095 -1.092142 -1.076580 -1.061017 
-1.048142 -1.039781 -1.037005 -1.040229 -1.049243 -1.063158 
-1.080219 -1.097478 -1.110238 -1.111215 -1.089273 -1.027584 
-0.901002 -0.672480 -0.288624 0.324650 1.262997 2.632582 
4.510637 6.858261 9.394965 11.536004 12.574555 12.117884 
10.389289 8.627352 6.994399 5.567701 4.366294 3.376866 
2.571984 1.920744 1.394049 0.966722 0.617943 0.330931 
0.092358 -0.108287 -0.279268 -0.427084 -0.556855 -0.672625 
-0.777602 -0.874334 -0.964853 -1.050774 -1.133381 -1.213682 
-1.292454 -1.370278 -1.447558 -1.524539 -1.601312 -1.677811 
-1.990092 -2.315291 -2.660445 -3.030591 -3.427458 -3.847327 
-4.277885 -4.694263 -5.055262 -5.302280 -5.365119 -5.178838 
-4.710953 -3.987945 -3.101702 -2.183836 -1.359231 -0.707368 
-0.251345 0.028406 0.171822 0.221343 0.212509 0.171277 
0.114908 0.054050 -0.005175 -0.059524 -0.107480 0.000000 
0.000000 -0.886576 -0.892510 -0.890898 -0.884928 -0.877445 
-0.870757 -0.866576 -0.866027 -0.869682 -0.877556 -0.889047 
-0.902776 -0.916296 -0.925602 -0.924375 -0.902805 -0.845817 
-0.730398 -0.521654 -0.167174 0.410399 1.321364 2.712282 
4.749841 7.554424 11.044971 14.715738 17.557032 18.467672 
17.055008 14.197953 11.462569 9.067409 7.079633 5.481077 
4.217408 3.226197 2.449910 1.840390 1.359267 0.976771 
0.670118 0.421976 0.219183 0.051731 -0.088010 -0.205878 
-0.306355 -0.392891 -0.468151 -0.534190 -0.592595 -0.644588 
-0.691102 -0.732849 -0.770367 -0.804065 -0.834253 -0.861174 
-0.885024 -1.125292 -1.363339 -1.607363 -1.864077 -2.138366 
-2.432388 -2.743897 -3.063588 -3.371541 -3.633582 -3.799876 
-3.810035 -3.609342 -3.175663 -2.544711 -1.812070 -1.100925 
-0.513252 -0.097779 0.149475 0.263562 0.287604 0.258893 
0.204238 0.140610 0.077651 0.020210 -0.029714 -0.071686 
0.000000 0.000000 -0.691185 -0.693756 -0.692501 -0.689424 
-0.686251 -0.684337 -0.684626 -0.687635 -0.693418 -0.701490 
-0.710675 -0.718831 -0.722414 -0.715773 -0.690062 -0.631553 
-0.519032 -0.319803 0.016355 0.565999 1.443822 2.815232 
4.899973 7.939077 12.068771 17.042603 21.890139 24.967388 
24.887901 21.696621 17.480501 13.731786 10.633509 8.177689 
6.274161 4.813490 3.695206 2.836850 2.174348 1.659275 
1.255517 0.936272 0.681649 0.476840 0.310768 0.175104 
0.063545 -0.028708 -0.105327 -0.169141 -0.222340 -0.266631 
-0.303354 -0.333577 -0.358160 -0.377814 -0.393145 -0.404693 
-0.412952 -0.418402 -0.628174 -0.824736 -1.017301 -1.213295 
-1.418559 -1.637124 -1.870396 -2.115553 -2.362984 -2.592851 
-2.771795 -2.852500 -2.780980 -2.516028 -2.057580 -1.466166 
-0.850234 -0.320526 0.056171 0.271088 0.355500 0.353758 
0.305046 0.236843 0.165555 0.099606 0.042492 -0.004996 
-0.043381 0.000000 0.000000 -0.519270 -0.518408 -0.515974 
-0.513131 -0.510809 -0.509654 -0.509983 -0.511734 -0.514374 
-0.516740 -0.516781 -0.511143 -0.494510 -0.458575 -0.390434 
-0.270078 -0.066468 0.268547 0.809478 1.670573 3.022971 
5.109965 8.239376 12.699130 18.504164 24.941088 30.240488 
32.186478 29.783508 24.189074 18.918188 14.562579 11.137818 
8.514551 6.528406 5.028596 3.892849 3.027623 2.363368 
1.849030 1.447283 1.130795 0.879469 0.678429 0.516587 
0.385610 0.279188 0.192499 0.121828 0.064284 0.017598 
-0.020036 -0.050076 -0.073717 -0.091960 -0.105663 -0.115580 
-0.122392 -0.126725 -0.129167 -0.329278 -0.507492 -0.674333 
-0.837922 -1.004595 -1.179072 -1.364142 -1.559695 -1.760924 
-1.955539 -2.120342 -2.218771 -2.203219 -2.027782 -1.673675 
-1.176337 -0.628368 -0.142428 0.202596 0.388592 0.444949 
0.418313 0.350177 0.268711 0.189647 0.120124 0.062306 
0.015870 -0.020538 0.000000 0.000000 -0.372473 -0.368275 
-0.363540 -0.358802 -0.354380 -0.350326 -0.346359 -0.341767 
-0.335241 -0.324621 -0.306488 -0.275535 -0.223576 -0.138012 
0.000589 0.222284 0.573680 1.127065 1.993956 3.343490 
5.422141 8.558713 13.108450 19.243095 26.498644 33.264618 
37.004116 35.866978 30.352514 22.815319 17.537298 13.412752 
10.270914 7.903656 6.123565 4.780519 3.760709 2.980114 
2.377412 1.907967 1.539215 1.247271 1.014489 0.827725 
0.677102 0.555127 0.456063 0.375471 0.309883 0.256556 
0.213295 0.178322 0.150173 0.127626 0.109646 0.095338 
0.083924 0.074715 0.067100 0.060535 -0.141107 -0.313410 
-0.468506 -0.615380 -0.760849 -0.910030 -1.066321 -1.230826 
-1.401029 -1.568538 -1.715933 -1.813668 -1.819937 -1.689010 
-1.392990 -0.951518 -0.445151 0.013181 0.335854 0.498160 
0.529465 0.479811 0.393475 0.299432 0.212753 0.139341 
0.080122 0.033784 -0.001736 0.000000 0.000000 -0.250200 
-0.242847 -0.235034 -0.226771 -0.217830 -0.207670 -0.195326 
-0.179242 -0.157010 -0.124968 -0.077583 -0.006499 0.100947 
0.264031 0.512240 0.890864 1.469566 2.355014 3.708013 
5.762168 8.830469 13.260630 19.258194 26.488573 33.569645 
38.096714 37.953548 33.083908 25.534840 17.724937 13.659691 
10.566193 8.227990 6.460155 5.117573 4.090982 3.299719 
2.684691 2.202636 1.821769 1.518599 1.275630 1.079718 
0.920901 0.791554 0.685782 0.598984 0.527528 0.468520 
0.419627 0.378946 0.344912 0.316222 0.291784 0.270672 
0.252103 0.235411 0.220030 0.205488 0.191395 -0.018187 
-0.191725 -0.343180 -0.482549 -0.617213 -0.752648 -0.892621 
-1.038848 -1.189959 -1.339585 -1.473463 -1.566154 -1.579696 
-1.469315 -1.202444 -0.789279 -0.302907 0.142570 0.452258 
0.596759 0.606872 0.536860 0.434124 0.328568 0.234705 
0.157326 0.096276 0.049392 0.014022 0.000000 0.000000 
-0.151281 -0.140993 -0.129593 -0.116597 -0.101214 -0.082223 
-0.057801 -0.025261 0.019348 0.081835 0.170788 0.298969 
0.485464 0.758982 1.162889 1.762729 2.656985 3.990994 
5.970701 8.863759 12.955182 18.394781 24.874908 31.233967 
35.466888 35.715626 31.707937 24.992943 17.667988 11.160281 
8.806170 7.008446 5.630280 4.567329 3.741577 3.095164 
2.585238 2.179971 1.855598 1.594240 1.382346 1.209548 
1.067846 0.951005 0.854119 0.773294 0.705410 0.647941 
0.598831 0.556389 0.519221 0.486170 0.456279 0.428753 
0.402940 0.378312 0.354447 0.331023 0.307803 0.284629 
0.063427 -0.115632 -0.268424 -0.406047 -0.536514 -0.665688 
-0.797637 -0.934442 -1.075337 -1.214982 -1.340720 -1.429224 
-1.444494 -1.342096 -1.086578 -0.682654 -0.199891 0.244728 
0.549622 0.682065 0.675281 0.588157 0.471315 0.355662 
0.255293 0.174086 0.110991 0.063151 0.027440 0.000000 
0.000000 -0.074964 -0.061967 -0.046668 -0.028078 -0.004778 
0.025256 0.064912 0.118321 0.191422 0.292811 0.435007 
0.636354 0.923879 1.337500 1.936071 2.805535 4.068469 
5.891266 8.477797 12.024100 16.592199 21.874712 26.940830 
30.290657 30.553104 27.462080 22.070677 15.939388 10.242132 
5.498704 4.519626 3.754925 3.153576 2.677488 2.298124 
1.993979 1.748727 1.549873 1.387765 1.254882 1.145306 
1.054335 0.978203 0.913863 0.858834 0.811084 0.768936 
0.731009 0.696164 0.663464 0.632149 0.601613 0.571382 
0.541104 0.510535 0.479524 0.448010 0.416005 0.383587 
0.350888 0.116295 -0.070780 -0.228064 -0.367747 -0.498496 
-0.626581 -0.756356 -0.890158 -1.027538 -1.163608 -1.286349 
-1.373157 -1.388454 -1.287186 -1.031652 -0.623670 -0.132509 
0.320271 0.626851 0.752374 0.733108 0.632519 0.504263 
0.380233 0.274271 0.189569 0.124397 0.075373 0.039006 
0.000000 0.000000 -0.021459 -0.005952 0.013433 0.038218 
0.070509 0.113240 0.170519 0.248131 0.354279 0.500659 
0.704036 0.988517 1.388760 1.954321 2.754986 3.885987 
5.469431 7.643064 10.519136 14.090249 18.077198 21.792446 
24.214233 24.432871 22.238329 18.274279 13.581007 9.019655 
5.033805 1.727632 1.512427 1.344830 1.214586 1.113781 
1.036233 0.977046 0.932296 0.898792 0.873913 0.855478 
0.841656 0.830901 0.821899 0.813537 0.804873 0.795121 
0.783638 0.769911 0.753552 0.734295 0.711983 0.686570 
0.658109 0.626745 0.592709 0.556302 0.517888 0.477878 
0.436715 0.394863 0.146731 -0.049535 -0.213258 -0.357603 
-0.491851 -0.622671 -0.754684 -0.890418 -1.029556 -1.167284 
-1.291527 -1.379359 -1.394371 -1.289950 -1.026411 -0.604671 
-0.096443 0.370768 0.683655 0.806543 0.779096 0.668913 
0.532224 0.401790 0.291353 0.203665 0.136544 0.086254 
0.049052 0.000000 0.000000 0.007771 0.025684 0.049324 
0.080750 0.122777 0.179268 0.255555 0.359039 0.500041 
0.692995 0.958101 1.323529 1.828162 2.524530 3.480766 
4.778626 6.501499 8.702418 11.341722 14.199014 16.808336 
18.519514 18.756550 17.348900 14.644341 11.283785 7.859549 
4.724874 1.998800 -0.339301 -0.252900 -0.166984 -0.081791 
0.002328 0.084932 0.165504 0.243473 0.318227 0.389133 
0.455556 0.516870 0.572483 0.621847 0.664478 0.699965 
0.727990 0.748334 0.760889 0.765662 0.762781 0.752496 
0.735174 0.711293 0.681434 0.646262 0.606515 0.562981 
0.516477 0.467830 0.417852 0.157557 -0.047958 -0.219155 
-0.369945 -0.510109 -0.646661 -0.784455 -0.926143 -1.071391 
-1.215136 -1.344680 -1.435899 -1.450480 -1.339459 -1.061475 
-0.618450 -0.087036 0.398413 0.720398 0.843964 0.812344 
0.696491 0.554518 0.419840 0.306218 0.216210 0.147411 
0.095898 0.057788 0.000000 0.000000 0.009903 0.030338 
0.058546 0.097088 0.149410 0.220170 0.315689 0.444568 
0.618522 0.853470 1.170890 1.599329 2.175693 2.945360 
3.959100 5.263222 6.877863 8.759687 10.754572 12.567834 
13.802085 14.094951 13.300642 11.576032 9.289355 6.831649 
4.475720 2.342912 0.442711 -1.269349 -1.119646 -0.971484 
-0.825018 -0.680608 -0.538784 -0.400221 -0.265701 -0.136081 
-0.012264 0.104833 0.214309 0.315306 0.407033 0.488789 
0.559984 0.620157 0.668992 0.706329 0.732175 0.746711 
0.750288 0.743430 0.726819 0.701285 0.667782 0.627362 
0.581151 0.530312 0.476013 0.419398 0.149735 -0.064088 
-0.243038 -0.401427 -0.549360 -0.694097 -0.840654 -0.991721 
-1.146779 -1.300201 -1.438116 -1.534384 -1.547845 -1.426615 
-1.128263 -0.657841 -0.099282 0.405924 0.738031 0.864565 
0.832332 0.714617 0.570551 0.433897 0.318518 0.226995 
0.156915 0.104332 0.065336 0.000000 0.000000 -0.019200 
0.004296 0.037801 0.084240 0.147479 0.232632 0.346487 
0.498034 0.699123 0.965210 1.316074 1.776191 2.374133 
3.139778 4.097435 5.252576 6.570998 7.954210 9.224762 
10.144935 10.485147 10.121612 9.100376 7.614552 5.910674 
4.193161 2.578346 1.099153 -0.265402 -1.557871 -1.434660 
-1.304700 -1.168927 -1.028473 -0.884638 -0.738858 -0.592670 
-0.447670 -0.305473 -0.167677 -0.035822 0.088632 0.204342 
0.310099 0.404850 0.487718 0.558014 0.615253 0.659163 
0.689694 0.707024 0.711558 0.703918 0.684936 0.655624 
0.617156 0.570823 0.517998 0.460090 0.398500 0.123458 
-0.096861 -0.283182 -0.449800 -0.606901 -0.761850 -0.919722 
-1.083116 -1.251123 -1.417194 -1.565697 -1.667665 -1.678274 
-1.542473 -1.217881 -0.715171 -0.127655 0.396554 0.738084 
0.868816 0.838947 0.722890 0.579832 0.443502 0.327887 
0.235768 0.164917 0.111518 0.071740 0.000000 0.000000 
-0.084752 -0.056921 -0.016593 0.039234 0.114439 0.214043 
0.344532 0.514217 0.733611 1.015707 1.375957 1.831580 
2.399537 3.092248 3.910038 4.829986 5.793125 6.696314 
7.399450 7.757026 7.668953 7.124866 6.210740 5.070765 
3.850182 2.652642 1.526592 0.474064 -0.531270 -1.525401 
-1.447816 -1.358014 -1.256819 -1.145371 -1.025089 -0.897630 
-0.764832 -0.628660 -0.491143 -0.354318 -0.220179 -0.090639 
0.032512 0.147630 0.253239 0.348049 0.430971 0.501128 
0.557872 0.600790 0.629719 0.644750 0.646232 0.634768 
0.611202 0.576593 0.532191 0.479385 0.419665 0.354565 
0.078961 -0.145357 -0.338099 -0.513092 -0.680331 -0.847110 
-1.018412 -1.196574 -1.380032 -1.560877 -1.721070 -1.828013 
-1.832589 -1.676822 -1.320179 -0.781805 -0.165991 0.374087 
0.722646 0.857722 0.832486 0.721173 0.582004 0.448241 
0.333953 0.242247 0.171234 0.117366 0.076986 0.000000 
0.000000 -0.192544 -0.157961 -0.108005 -0.040122 0.048954 
0.163409 0.308552 0.490987 0.718703 1.000936 1.347625 
1.768122 2.268716 2.848549 3.493768 4.170807 4.821471 
5.364594 5.709218 5.779553 5.542792 5.023962 4.296962 
3.456285 2.585875 1.739677 0.937600 0.172058 -0.581244 
-1.351792 -1.313255 -1.261260 -1.196019 -1.118144 -1.028633 
-0.928831 -0.820381 -0.705149 -0.585154 -0.462499 -0.339300 
-0.217635 -0.099493 0.013254 0.118885 0.215840 0.302739 
0.378394 0.441817 0.492240 0.529121 0.552166 0.561338 
0.556867 0.539247 0.509237 0.467833 0.416242 0.355840 
0.288121 0.017113 -0.208248 -0.405985 -0.589029 -0.766908 
-0.946636 -1.132924 -1.327613 -1.528137 -1.724714 -1.896188 
-2.005594 -1.999221 -1.817108 -1.423151 -0.847978 -0.207514 
0.342776 0.694313 0.832790 0.813653 0.709594 0.576858 
0.447764 0.336357 0.246130 0.175651 0.121743 0.081014 
0.000000 0.000000 -0.348087 -0.302747 -0.238592 -0.154389 
-0.048353 0.082033 0.240139 0.430202 0.657198 0.926470 
1.242953 1.609815 2.026292 2.484668 2.966694 3.440541 
3.860320 4.170733 4.318291 4.266915 4.011356 3.580591 
3.028180 2.414377 1.789010 1.181689 0.600391 0.035606 
-0.533092 -1.129527 -1.117720 -1.093991 -1.057924 -1.009498 
-0.949105 -0.877537 -0.795949 -0.705805 -0.608806 -0.506817 
-0.401795 -0.295725 -0.190563 -0.088196 0.009591 0.101135 
0.184910 0.259538 0.323801 0.376652 0.417230 0.444877 
0.459158 0.459879 0.447105 0.421162 0.382646 0.332404 
0.271510 0.201228 -0.060175 -0.283411 -0.484324 -0.674599 
-0.863037 -1.056166 -1.258190 -1.470161 -1.688088 -1.899714 
-2.080058 -2.187234 -2.163203 -1.947861 -1.512863 -0.903016 
-0.245102 0.307163 0.656083 0.795963 0.783526 0.688556 
0.564357 0.441814 0.334774 0.247116 0.177927 0.124484 
0.083727 0.000000 0.000000 -0.555331 -0.493309 -0.408323 
-0.301789 -0.174488 -0.026332 0.143689 0.337379 0.557061 
0.805068 1.082966 1.390383 1.723419 2.072720 2.421588 
2.744989 3.010654 3.183456 3.233124 3.143256 2.917665 
2.580311 2.168137 1.720057 1.266999 0.826340 0.401132 
-0.017387 -0.445665 -0.902744 -0.906726 -0.901557 -0.886401 
-0.860743 -0.824427 -0.777678 -0.721090 -0.655600 -0.582435 
-0.503048 -0.419057 -0.332177 -0.244164 -0.156766 -0.071688 
0.009435 0.085052 0.153713 0.214074 0.264911 0.305128 
0.333777 0.350076 0.353433 0.343468 0.320035 0.283240 
0.233445 0.171267 0.097560 -0.149764 -0.367683 -0.569596 
-0.765705 -0.963871 -1.169909 -1.387257 -1.615814 -1.849663 
-2.073444 -2.257736 -2.355597 -2.305748 -2.050827 -1.574021 
-0.936016 -0.271775 0.271802 0.611189 0.749517 0.743508 
0.658725 0.544650 0.430246 0.328937 0.244922 0.177820 
0.125407 0.085008 0.000000 0.000000 -0.814995 -0.728458 
-0.614109 -0.477845 -0.324186 -0.155970 0.025543 0.220308 
0.428986 0.652327 0.890402 1.141679 1.401919 1.663019 
1.912107 2.131406 2.299557 2.394881 2.400316 2.308614 
2.125515 1.868968 1.564318 1.237398 0.908365 0.588159 
0.277890 -0.029676 -0.347450 -0.690514 -0.702390 -0.708112 
-0.706659 -0.697224 -0.679268 -0.652558 -0.617193 -0.573593 
-0.522481 -0.464840 -0.401866 -0.334910 -0.265430 -0.194938 
-0.124965 -0.057031 0.007377 0.066818 0.119908 0.165328 
0.201830 0.228257 0.243552 0.246780 0.237157 0.214070 
0.177107 0.126076 0.061024 -0.017759 -0.247242 -0.456708 
-0.657057 -0.856885 -1.062940 -1.280102 -1.510734 -1.753170 
-1.999033 -2.229287 -2.409758 -2.488995 -2.404657 -2.105977 
-1.591243 -0.936897 -0.281337 0.240912 0.562893 0.695938 
0.695262 0.621011 0.518083 0.413052 0.318661 0.239307 
0.175102 0.124329 0.084729 0.000000 0.000000 -1.122648 
-1.002521 -0.849281 -0.675519 -0.490556 -0.300197 -0.107331 
0.087189 0.283638 0.482588 0.684133 0.887132 1.088452 
1.282290 1.459758 1.609042 1.716512 1.768964 1.756751 
1.676887 1.534780 1.343527 1.120744 0.884124 0.647395 
0.417898 0.196036 -0.023851 -0.251743 -0.499519 -0.514188 
-0.525391 -0.532100 -0.533399 -0.528538 -0.516988 -0.498474 
-0.472995 -0.440827 -0.402506 -0.358800 -0.310674 -0.259245 
-0.205740 -0.151464 -0.097765 -0.046012 0.002420 0.046163 
0.083864 0.114192 0.135841 0.147547 0.148098 0.136357 