# vtk DataFile Version 1.0
vtk output
ASCII
DATASET POLYDATA
POINTS 8281 float
-0.993243 -0.010200 -1.007160 -0.950487 0.009153 -1.006176 
-0.908620 0.028075 -1.005250 -0.867627 0.046565 -1.004382 
-0.827491 0.064623 -1.003569 -0.788197 0.082249 -1.002811 
-0.749730 0.099441 -1.002105 -0.712074 0.116200 -1.001450 
-0.675213 0.132525 -1.000845 -0.639132 0.148415 -1.000288 
-0.603816 0.163870 -0.999778 -0.569249 0.178890 -0.999313 
-0.535417 0.193474 -0.998893 -0.502303 0.207621 -0.998515 
-0.469893 0.221332 -0.998178 -0.438172 0.234606 -0.997881 
-0.407125 0.247443 -0.997622 -0.376736 0.259842 -0.997400 
-0.346991 0.271803 -0.997214 -0.317875 0.283326 -0.997062 
-0.289373 0.294410 -0.996943 -0.261470 0.305056 -0.996855 
-0.234152 0.315262 -0.996798 -0.207404 0.325030 -0.996770 
-0.181211 0.334358 -0.996769 -0.155559 0.343246 -0.996795 
-0.130433 0.351695 -0.996846 -0.105819 0.359703 -0.996921 
-0.081702 0.367272 -0.997018 -0.058068 0.374400 -0.997137 
-0.034903 0.381088 -0.997276 -0.012193 0.387336 -0.997433 
0.010077 0.393143 -0.997608 0.031921 0.398510 -0.997800 
0.053353 0.403436 -0.998007 0.074386 0.407922 -0.998227 
0.095035 0.411967 -0.998461 0.115314 0.415571 -0.998706 
0.135237 0.418735 -0.998962 0.154817 0.421459 -0.999227 
0.174068 0.423742 -0.999500 0.193004 0.425584 -0.999781 
0.211638 0.426987 -1.000067 0.229985 0.427949 -1.000358 
0.248057 0.428472 -1.000653 0.265868 0.428554 -1.000951 
0.283431 0.428197 -1.001250 0.300761 0.427401 -1.001549 
0.317869 0.426165 -1.001849 0.334770 0.424490 -1.002146 
0.351477 0.422376 -1.002441 0.368003 0.419824 -1.002732 
0.384360 0.416833 -1.003019 0.400563 0.413405 -1.003300 
0.416623 0.409538 -1.003574 0.432554 0.405235 -1.003840 
0.448370 0.400494 -1.004098 0.464081 0.395316 -1.004347 
0.479703 0.389702 -1.004584 0.495246 0.383652 -1.004810 
0.510724 0.377167 -1.005024 0.526150 0.370246 -1.005224 
0.541535 0.362891 -1.005411 0.556894 0.355101 -1.005581 
0.572237 0.346878 -1.005736 0.587577 0.338221 -1.005874 
0.602928 0.329131 -1.005994 0.618300 0.319610 -1.006095 
0.633707 0.309656 -1.006176 0.649160 0.299271 -1.006237 
0.664671 0.288456 -1.006277 0.680254 0.277211 -1.006295 
0.695919 0.265536 -1.006290 0.711679 0.253432 -1.006261 
0.727545 0.240900 -1.006207 0.743530 0.227941 -1.006129 
0.759646 0.214555 -1.006024 0.775903 0.200743 -1.005892 
0.792314 0.186505 -1.005733 0.808891 0.171842 -1.005546 
0.825644 0.156756 -1.005329 0.842586 0.141246 -1.005083 
0.859728 0.125314 -1.004806 0.877082 0.108960 -1.004498 
0.894659 0.092186 -1.004158 0.912470 0.074991 -1.003785 
0.930526 0.057377 -1.003379 0.948839 0.039345 -1.002939 
0.967420 0.020895 -1.002465 0.986280 0.002029 -1.001955 
1.005430 -0.017253 -1.001410 -0.992953 -0.006152 -0.971483 
-0.950215 0.010576 -0.971989 -0.908369 0.026977 -0.972461 
-0.867399 0.043051 -0.972901 -0.827288 0.058797 -0.973309 
-0.788021 0.074212 -0.973687 -0.749583 0.089297 -0.974037 
-0.711956 0.104050 -0.974360 -0.675126 0.118469 -0.974656 
-0.639076 0.132553 -0.974927 -0.603792 0.146301 -0.975175 
-0.569258 0.159712 -0.975400 -0.535457 0.172784 -0.975604 
-0.502376 0.185517 -0.975788 -0.469998 0.197907 -0.975953 
-0.438309 0.209955 -0.976099 -0.407292 0.221659 -0.976228 
-0.376933 0.233017 -0.976342 -0.347218 0.244027 -0.976440 
-0.318129 0.254689 -0.976524 -0.289654 0.265000 -0.976594 
-0.261777 0.274959 -0.976652 -0.234482 0.284564 -0.976699 
-0.207756 0.293815 -0.976735 -0.181583 0.302708 -0.976761 
-0.155950 0.311243 -0.976778 -0.130840 0.319417 -0.976786 
-0.106241 0.327230 -0.976787 -0.082136 0.334678 -0.976780 
-0.058513 0.341761 -0.976767 -0.035356 0.348476 -0.976748 
-0.012651 0.354822 -0.976724 0.009615 0.360797 -0.976695 
0.031458 0.366399 -0.976663 0.052891 0.371625 -0.976626 
0.073928 0.376475 -0.976586 0.094584 0.380945 -0.976544 
0.114871 0.385035 -0.976499 0.134805 0.388742 -0.976453 
0.154398 0.392063 -0.976404 0.173665 0.394997 -0.976355 
0.192619 0.397542 -0.976304 0.211273 0.399696 -0.976253 
0.229642 0.401456 -0.976201 0.247739 0.402820 -0.976149 
0.265577 0.403786 -0.976097 0.283169 0.404351 -0.976045 
0.300530 0.404514 -0.975993 0.317671 0.404273 -0.975942 
0.334607 0.403624 -0.975891 0.351349 0.402565 -0.975840 
0.367913 0.401095 -0.975789 0.384309 0.399210 -0.975739 
0.400552 0.396908 -0.975690 0.416654 0.394187 -0.975640 
0.432628 0.391044 -0.975591 0.448487 0.387477 -0.975541 
0.464243 0.383484 -0.975492 0.479909 0.379061 -0.975442 
0.495497 0.374206 -0.975391 0.511021 0.368916 -0.975339 
0.526491 0.363189 -0.975287 0.541922 0.357022 -0.975233 
0.557324 0.350413 -0.975177 0.572711 0.343358 -0.975118 
0.588094 0.335855 -0.975057 0.603486 0.327902 -0.974994 
0.618899 0.319494 -0.974926 0.634344 0.310630 -0.974855 
0.649833 0.301307 -0.974779 0.665379 0.291521 -0.974698 
0.680994 0.281271 -0.974612 0.696688 0.270552 -0.974519 
0.712473 0.259362 -0.974419 0.728362 0.247698 -0.974312 
0.744366 0.235557 -0.974196 0.760496 0.222936 -0.974072 
0.776764 0.209831 -0.973938 0.793181 0.196241 -0.973793 
0.809758 0.182161 -0.973637 0.826507 0.167588 -0.973469 
0.843439 0.152519 -0.973288 0.860564 0.136952 -0.973093 
0.877895 0.120882 -0.972884 0.895442 0.104307 -0.972658 
0.913215 0.087223 -0.972416 0.931226 0.069627 -0.972156 
0.949486 0.051516 -0.971877 0.968006 0.032886 -0.971578 
0.986795 0.013734 -0.971258 1.005865 -0.005944 -0.970916 
-0.992750 -0.002123 -0.936237 -0.950032 0.012149 -0.938139 
-0.908208 0.026192 -0.939919 -0.867263 0.040006 -0.941583 
-0.827179 0.053589 -0.943133 -0.787942 0.066938 -0.944575 
-0.749534 0.080052 -0.945912 -0.711941 0.092930 -0.947148 
-0.675145 0.105568 -0.948286 -0.639130 0.117966 -0.949332 
-0.603882 0.130121 -0.950287 -0.569384 0.142030 -0.951156 
-0.535621 0.153692 -0.951943 -0.502576 0.165105 -0.952651 
-0.470235 0.176265 -0.953283 -0.438582 0.187171 -0.953842 
-0.407601 0.197820 -0.954333 -0.377277 0.208209 -0.954758 
-0.347595 0.218336 -0.955120 -0.318540 0.228198 -0.955423 
-0.290096 0.237792 -0.955669 -0.262249 0.247116 -0.955861 
-0.234983 0.256166 -0.956003 -0.208284 0.264940 -0.956097 
-0.182136 0.273435 -0.956146 -0.156525 0.281646 -0.956153 
-0.131436 0.289572 -0.956119 -0.106855 0.297209 -0.956049 
-0.082767 0.304554 -0.955944 -0.059158 0.311602 -0.955806 
-0.036012 0.318352 -0.955639 -0.013317 0.324799 -0.955444 
0.008943 0.330939 -0.955224 0.030782 0.336770 -0.954980 
0.052214 0.342287 -0.954715 0.073252 0.347486 -0.954431 
0.093912 0.352364 -0.954130 0.114206 0.356917 -0.953814 
0.134149 0.361140 -0.953484 0.153755 0.365030 -0.953143 
0.173036 0.368583 -0.952791 0.192008 0.371794 -0.952431 
0.210682 0.374659 -0.952065 0.229074 0.377173 -0.951693 
0.247196 0.379334 -0.951317 0.265061 0.381135 -0.950939 
0.282683 0.382572 -0.950560 0.300076 0.383641 -0.950181 
0.317251 0.384337 -0.949803 0.334223 0.384655 -0.949427 
0.351004 0.384591 -0.949054 0.367608 0.384140 -0.948686 
0.384046 0.383296 -0.948323 0.400332 0.382055 -0.947966 
0.416479 0.380411 -0.947616 0.432499 0.378360 -0.947273 
0.448404 0.375896 -0.946939 0.464208 0.373014 -0.946613 
0.479922 0.369709 -0.946296 0.495560 0.365975 -0.945989 
0.511132 0.361806 -0.945692 0.526652 0.357198 -0.945406 
0.542132 0.352144 -0.945130 0.557583 0.346640 -0.944864 
0.573018 0.340678 -0.944609 0.588449 0.334253 -0.944366 
0.603887 0.327360 -0.944133 0.619344 0.319993 -0.943910 
0.634833 0.312144 -0.943699 0.650363 0.303810 -0.943497 
0.665948 0.294982 -0.943306 0.681599 0.285655 -0.943124 
0.697326 0.275823 -0.942952 0.713142 0.265479 -0.942788 
0.729058 0.254617 -0.942632 0.745084 0.243230 -0.942484 
0.761233 0.231312 -0.942343 0.777514 0.218856 -0.942208 
0.793940 0.205856 -0.942078 0.810521 0.192304 -0.941952 
0.827267 0.178194 -0.941830 0.844190 0.163519 -0.941711 
0.861301 0.148272 -0.941592 0.878609 0.132446 -0.941474 
0.896126 0.116033 -0.941354 0.913862 0.099027 -0.941233 
0.931828 0.081421 -0.941107 0.950033 0.063207 -0.940976 
0.968489 0.044377 -0.940839 0.987204 0.024925 -0.940693 
1.006191 0.004842 -0.940538 -0.992630 0.001880 -0.901408 
-0.949931 0.013859 -0.904613 -0.908130 0.025702 -0.907615 
-0.867211 0.037407 -0.910421 -0.827157 0.048972 -0.913038 
-0.787952 0.060394 -0.915472 -0.749579 0.071672 -0.917730 
-0.712021 0.082801 -0.919818 -0.675262 0.093781 -0.921741 
-0.639287 0.104607 -0.923508 -0.604079 0.115278 -0.925122 
-0.569621 0.125790 -0.926591 -0.535899 0.136140 -0.927920 
-0.502895 0.146325 -0.929115 -0.470595 0.156342 -0.930182 
-0.438983 0.166187 -0.931125 -0.408042 0.175857 -0.931951 
-0.377758 0.185348 -0.932665 -0.348115 0.194657 -0.933272 
-0.319097 0.203779 -0.933777 -0.290689 0.212711 -0.934185 
-0.262876 0.221449 -0.934501 -0.235643 0.229988 -0.934730 
-0.208974 0.238325 -0.934876 -0.182856 0.246455 -0.934945 
-0.157272 0.254373 -0.934940 -0.132208 0.262075 -0.934866 
-0.107649 0.269557 -0.934728 -0.083581 0.276813 -0.934530 
-0.059989 0.283838 -0.934275 -0.036858 0.290629 -0.933967 
-0.014175 0.297179 -0.933612 0.008076 0.303483 -0.933212 
0.029909 0.309536 -0.932770 0.051337 0.315333 -0.932292 
0.072375 0.320868 -0.931779 0.093037 0.326136 -0.931237 
0.113336 0.331130 -0.930667 0.133287 0.335845 -0.930072 
0.152904 0.340275 -0.929457 0.172199 0.344414 -0.928825 
0.191188 0.348256 -0.928177 0.209882 0.351794 -0.927516 
0.228296 0.355022 -0.926846 0.246443 0.357934 -0.926169 
0.264337 0.360523 -0.925488 0.281989 0.362782 -0.924804 
0.299415 0.364704 -0.924120 0.316626 0.366284 -0.923439 
0.333636 0.367512 -0.922761 0.350457 0.368384 -0.922090 
0.367102 0.368890 -0.921428 0.383584 0.369025 -0.920774 
0.399916 0.368779 -0.920133 0.416110 0.368147 -0.919504 
0.432179 0.367120 -0.918890 0.448134 0.365691 -0.918292 
0.463989 0.363851 -0.917711 0.479755 0.361593 -0.917148 
0.495445 0.358908 -0.916604 0.511071 0.355788 -0.916081 
0.526644 0.352226 -0.915578 0.542177 0.348213 -0.915098 
0.557682 0.343739 -0.914640 0.573169 0.338797 -0.914204 
0.588651 0.333378 -0.913793 0.604140 0.327473 -0.913404 
0.619646 0.321073 -0.913040 0.635182 0.314169 -0.912700 
[...]
POINT_DATA 8281
SCALARS scalars float
LOOKUP_TABLE default
0.000000 0.000000 0.000000 0.000000 0.000000 0.000000 
0.000000 0.000000 0.000000 0.000000 0.000000 0.000000 
0.000000 0.000000 0.000000 0.000000 0.000000 0.000000 
0.000000 0.000000 0.000000 0.000000 0.000000 0.000000 
0.000000 0.000000 0.000000 0.000000 0.000000 0.000000 
0.000000 0.000000 0.000000 0.000000 0.000000 0.000000 
0.000000 0.000000 0.000000 0.000000 0.000000 0.000000 
0.000000 0.000000 0.000000 0.000000 0.000000 0.000000 
0.000000 0.000000 0.000000 0.000000 0.000000 0.000000 
0.000000 0.000000 0.000000 0.000000 0.000000 0.000000 
0.000000 0.000000 0.000000 0.000000 0.000000 0.000000 
0.000000 0.000000 0.000000 0.000000 0.000000 0.000000 
0.000000 0.000000 0.000000 0.000000 0.000000 0.000000 
0.000000 0.000000 0.000000 0.000000 0.000000 0.000000 
0.000000 0.000000 0.000000 0.000000 0.000000 0.000000 
0.000000 0.000000 0.202789 0.257915 0.321608 0.392627 
0.468888 0.547711 0.626207 0.701710 0.772114 0.836057 
0.892920 0.942709 0.985881 1.023153 1.055359 1.083330 
1.107834 1.129531 1.148963 1.166552 1.182606 1.197331 
1.210841 1.223170 1.234279 1.244066 1.252369 1.258971 
1.263605 1.265954 1.265653 1.262293 1.255416 1.244524 
1.229076 1.208494 1.182169 1.149467 1.109744 1.062361 
1.006708 0.942227 0.868458 0.785073 0.691938 0.589167 
0.477189 0.356812 0.229275 0.096292 -0.039940 -0.176769 
-0.311169 -0.439871 -0.559552 -0.667054 -0.759626 -0.835146 
-0.892297 -0.930665 -0.950752 -0.953892 -0.942097 -0.917856 
-0.883916 -0.843074 -0.798004 -0.751132 -0.704551 -0.659992 
-0.618816 -0.582045 -0.550397 -0.524334 -0.504110 -0.489816 
-0.481416 -0.478784 -0.481723 -0.489991 -0.503303 -0.521345 
-0.543768 -0.570183 -0.600149 -0.633153 -0.668581 -0.705684 
-0.743530 0.000000 0.000000 0.120760 0.193812 0.279162 
0.374834 0.477728 0.583993 0.689572 0.790769 0.884693 
0.969479 1.044284 1.109129 1.164652 1.211871 1.251964 
1.286125 1.315463 1.340945 1.363378 1.383407 1.401520 
1.418067 1.433276 1.447263 1.460054 1.471591 1.481741 
1.490305 1.497024 1.501580 1.503603 1.502669 1.498305 
1.489988 1.477150 1.459181 1.435431 1.405219 1.367844 
1.322598 1.268782 1.205736 1.132867 1.049691 0.955882 
0.851325 0.736185 0.610968 0.476588 0.334417 0.186325 
0.034678 -0.117703 -0.267626 -0.411683 -0.546432 -0.668634 
-0.775480 -0.864814 -0.935289 -0.986463 -1.018794 -1.033560 
-1.032706 -1.018646 -0.994060 -0.961691 -0.924184 -0.883957 
-0.843128 -0.803469 -0.766405 -0.733029 -0.704138 -0.680270 
-0.661748 -0.648721 -0.641201 -0.639088 -0.642197 -0.650274 
-0.663002 -0.680011 -0.700867 -0.725068 -0.752024 -0.781036 
-0.811262 -0.841681 0.000000 0.000000 0.046954 0.136159 
0.240385 0.357110 0.482556 0.612134 0.741052 0.864937 
0.980319 1.084888 1.177510 1.258060 1.327169 1.385950 
1.435756 1.477995 1.514008 1.544994 1.571974 1.595783 
1.617074 1.636334 1.653899 1.669976 1.684656 1.697929 
1.709697 1.719781 1.727934 1.733842 1.737128 1.737361 
1.734054 1.726669 1.714620 1.697275 1.673962 1.643976 
1.606586 1.561049 1.506626 1.442604 1.368323 1.283213 
1.186835 1.078937 0.959508 0.828842 0.687607 0.536900 
0.378296 0.213873 0.046200 -0.121716 -0.286530 -0.444719 
-0.592776 -0.727438 -0.845910 -0.946071 -1.026620 -1.087153 
-1.128152 -1.150902 -1.157339 -1.149859 -1.131124 -1.103867 
-1.070735 -1.034165 -0.996308 -0.958984 -0.923672 -0.891524 
-0.863390 -0.839857 -0.821287 -0.807853 -0.799572 -0.796337 
-0.797931 -0.804049 -0.814299 -0.828211 -0.845223 -0.864678 
-0.885800 -0.907669 -0.929194 0.000000 0.000000 -0.016553 
0.086876 0.207037 0.341038 0.484735 0.633187 0.781261 
0.924242 1.058317 1.180838 1.290366 1.386534 1.469813 
1.541236 1.602159 1.654053 1.698369 1.736436 1.769420 
1.798295 1.823845 1.846673 1.867215 1.885759 1.902461 
1.917361 1.930398 1.941418 1.950188 1.956404 1.959692 
1.959620 1.955699 1.947388 1.934098 1.915197 1.890015 
1.857852 1.817982 1.769671 1.712186 1.644818 1.566904 
1.477857 1.377206 1.264641 1.140059 1.003629 0.855848 
0.697598 0.530204 0.355464 0.175664 -0.006449 -0.187731 
-0.364751 -0.533958 -0.691869 -0.835292 -0.961534 -1.068591 
-1.155274 -1.221276 -1.267152 -1.294231 -1.304472 -1.300277 
-1.284308 -1.259298 -1.227899 -1.192564 -1.155467 -1.118455 
-1.083039 -1.050401 -1.021413 -0.996678 -0.976559 -0.961216 
-0.950638 -0.944669 -0.943026 -0.945316 -0.951042 -0.959599 
-0.970277 -0.982242 -0.994521 -1.005982 0.000000 0.000000 
-0.068482 0.047158 0.180306 0.327863 0.485575 0.648463 
0.811380 0.969562 1.119074 1.257065 1.381836 1.492742 
1.589996 1.674424 1.747238 1.809835 1.863644 1.910023 
1.950192 1.985201 2.015916 2.043022 2.067030 2.088297 
2.107035 2.123332 2.137163 2.148406 2.156850 2.162206 
2.164119 2.162169 2.155882 2.144736 2.128164 2.105560 
2.076288 2.039687 1.995080 1.941783 1.879120 1.806437 
1.723126 1.628643 1.522549 1.404538 1.274486 1.132496 
0.978955 0.814581 0.640481 0.458186 0.269681 0.077397 
-0.115817 -0.306772 -0.492052 -0.668175 -0.831778 -0.979820 
-1.109777 -1.219813 -1.308887 -1.376814 -1.424234 -1.452527 
-1.463678 -1.460095 -1.444433 -1.419417 -1.387693 -1.351711 
-1.313646 -1.275349 -1.238333 -1.203778 -1.172548 -1.145225 
-1.122142 -1.103414 -1.088970 -1.078575 -1.071858 -1.068315 
-1.067323 -1.068142 -1.069907 -1.071622 -1.072153 0.000000 
0.000000 -0.108310 0.017516 0.160820 0.318441 0.486211 
0.659347 0.832930 1.002376 1.163817 1.314341 1.452066 
1.576088 1.686324 1.783319 1.868037 1.941688 2.005568 
2.060958 2.109046 2.150882 2.187354 2.219184 2.246928 
2.270986 2.291615 2.308944 2.322986 2.333651 2.340763 
2.344064 2.343230 2.337878 2.327573 2.311836 2.290154 
2.261983 2.226754 2.183885 2.132785 2.072862 2.003539 
1.924259 1.834511 1.733838 1.621873 1.498358 1.363185 
1.216433 1.058412 0.889708 0.711232 0.524262 0.330469 
0.131942 -0.068832 -0.268998 -0.465417 -0.654775 -0.833735 
-0.999109 -1.148052 -1.278231 -1.387984 -1.476419 -1.543460 
-1.589820 -1.616920 -1.626755 -1.621726 -1.604471 -1.577693 
-1.544015 -1.505866 -1.465401 -1.424450 -1.384502 -1.346708 
-1.311896 -1.280601 -1.253098 -1.229434 -1.209458 -1.192845 
-1.179120 -1.167669 -1.157753 -1.148510 -1.138957 -1.127988 
0.000000 0.000000 -0.136149 -0.002120 0.148714 0.313245 
0.487532 0.667146 0.847553 1.024504 1.194347 1.354232 
1.502189 1.637107 1.758622 1.866968 1.962814 2.047101 
2.120912 2.185363 2.241528 2.290382 2.332778 2.369423 
2.400878 2.427561 2.449757 2.467625 2.481216 2.490482 
2.495287 2.495425 2.490624 2.480561 2.464869 2.443147 
2.414964 2.379871 2.337403 2.287089 2.228457 2.161039 
2.084383 1.998058 1.901671 1.794875 1.677391 1.549027 
1.409706 1.259498 1.098650 0.927633 0.747175 0.558308 
0.362400 0.161179 -0.043250 -0.248425 -0.451564 -0.649639 
-0.839484 -1.017936 -1.181996 -1.329004 -1.456805 -1.563884 
-1.649470 -1.713567 -1.756940 -1.781030 -1.787828 -1.779721 
-1.759319 -1.729295 -1.692239 -1.650546 -1.606336 -1.561401 
-1.517188 -1.474795 -1.434996 -1.398262 -1.364796 -1.334565 
-1.307334 -1.282689 -1.260063 -1.238753 -1.217934 -1.196669 
-1.173919 0.000000 0.000000 -0.152609 -0.012266 0.143731 
0.312414 0.490165 0.672991 0.856835 1.037874 1.212767 
1.378823 1.534073 1.677269 1.807813 1.925647 2.031129 
2.124901 2.207779 2.280657 2.344427 2.399935 2.447937 
2.489080 2.523893 2.552785 2.576048 2.593866 2.606323 
2.613419 2.615075 2.611150 2.601449 2.585734 2.563734 
2.535152 2.499672 2.456965 2.406699 2.348534 2.282139 
2.207185 2.123358 2.030361 1.927920 1.815800 1.693806 
1.561811 1.419766 1.267727 1.105885 0.934595 0.754416 
0.566145 0.370857 0.169937 -0.034901 -0.241597 -0.447765 
-0.650729 -0.847590 -1.035331 -1.210949 -1.371602 -1.514781 
-1.638459 -1.741233 -1.822409 -1.882047 -1.920939 -1.940537 
-1.942826 -1.930176 -1.905175 -1.870466 -1.828607 -1.781957 
-1.732593 -1.682261 -1.632352 -1.583907 -1.537632 -1.493930 
-1.452929 -1.414523 -1.378402 -1.344083 -1.310936 -1.278209 
-1.245044 -1.210494 0.000000 0.000000 -0.158643 -0.013743 
0.145332 0.315824 0.494483 0.677790 0.862195 1.044340 
1.221247 1.390444 1.550039 1.698718 1.835709 1.960708 
2.073783 2.175280 2.265732 2.345777 2.416094 2.477351 
2.530168 2.575097 2.612602 2.643059 2.666752 2.683880 
2.694563 2.698850 2.696733 2.688152 2.673007 2.651167 
2.622478 2.586769 2.543858 2.493554 2.435668 2.370005 
2.296376 2.214592 2.124473 2.025845 1.918544 1.802427 
1.677374 1.543301 1.400174 1.248030 1.086994 0.917312 
0.739380 0.553780 0.361315 0.163046 -0.039673 -0.245178 
-0.451479 -0.656276 -0.856991 -1.050835 -1.234905 -1.406306 
-1.562306 -1.700486 -1.818901 -1.916211 -1.991771 -2.045673 
-2.078734 -2.092417 -2.088716 -2.069999 -2.038847 -1.997893 
-1.949673 -1.896517 -1.840464 -1.783211 -1.726096 -1.670101 
-1.615866 -1.563730 -1.513757 -1.465786 -1.419455 -1.374245 
-1.329508 -1.284489 -1.238357 0.000000 0.000000 -0.155411 
-0.007557 0.152803 0.323156 0.500642 0.682214 0.864820 
1.045565 1.221845 1.391447 1.552601 1.703992 1.844736 
1.974339 2.092624 2.199670 2.295739 2.381214 2.456545 
2.522205 2.578659 2.626336 2.665617 2.696830 2.720238 
2.736049 2.744419 2.745452 2.739216 2.725744 2.705044 
2.677103 2.641896 2.599386 2.549532 2.492288 2.427602 
2.355422 2.275689 2.188342 2.093315 1.990537 1.879934 
1.761430 1.634957 1.500455 1.357891 1.207268 1.048643 
0.882156 0.708054 0.526721 0.338720 0.144823 -0.053948 
-0.256288 -0.460586 -0.664911 -0.867024 -1.064411 -1.254341 
-1.433967 -1.600444 -1.751080 -1.883495 -1.995775 -2.086609 
-2.155382 -2.202220 -2.227974 -2.234147 -2.222769 -2.196244 
-2.157182 -2.108230 -2.051927 -1.990590 -1.926233 -1.860514 
-1.794723 -1.729787 -1.666293 -1.604527 -1.544511 -1.486046 
-1.428755 -1.372118 -1.315506 -1.258213 0.000000 0.000000 
-0.144169 0.005208 0.165334 0.333968 0.508626 0.686713 
0.865641 1.042949 1.216397 1.384036 1.544249 1.695766 
1.837649 1.969270 2.090265 2.200487 2.299963 2.388841 
2.467356 2.535789 2.594442 2.643621 2.683615 2.714693 
2.737097 2.751040 2.756709 2.754269 2.743865 2.725624 
2.699665 2.666096 2.625019 2.576530 2.520721 2.457677 
2.387476 2.310184 2.225858 2.134538 2.036249 1.930996 
1.818767 1.699534 1.573254 1.439875 1.299348 1.151635 
0.996727 0.834662 0.665553 0.489614 0.307193 0.118814 
-0.074791 -0.272637 -0.473456 -0.675667 -0.877364 -1.076322 
-1.270031 -1.455758 -1.630640 -1.791816 -1.936573 -2.062518 
-2.167733 -2.250921 -2.311501 -2.349655 -2.366310 -2.363054 
-2.342010 -2.305673 -2.256724 -2.197869 -2.131680 -2.060487 
-1.986289 -1.910720 -1.835028 -1.760096 -1.686468 -1.614391 
-1.543859 -1.474663 -1.406431 -1.338672 -1.270809 0.000000 
0.000000 -0.126179 0.023462 0.182092 0.347742 0.518291 
0.691549 0.865349 1.037619 1.206455 1.370163 1.527294 
1.676649 1.817285 1.948493 2.069773 2.180810 2.281438 
2.371611 2.451373 2.520836 2.580155 2.629518 2.669128 
2.699198 2.719945 2.731589 2.734348 2.728440 2.714086 
2.691503 2.660913 2.622534 2.576584 2.523277 2.462820 
2.395408 2.321224 2.240432 2.153174 2.059566 1.959696 
1.853621 1.741367 1.622929 1.498271 1.367338 1.230052 
1.086334 0.936107 0.779321 0.615971 0.446123 0.269948 
0.087755 -0.099970 -0.292520 -0.488930 -0.687934 -0.887939 
-1.087013 -1.282884 -1.472979 -1.654487 -1.824462 -1.979958 
-2.118191 -2.236716 -2.333600 -2.407570 -2.458114 -2.485524 
-2.490870 -2.475903 -2.442917 -2.394561 -2.333653 -2.262998 
-2.185238 -2.102729 -2.017473 -1.931079 -1.844760 -1.759356 
-1.675369 -1.593014 -1.512268 -1.432918 -1.354614 -1.276904 
0.000000 0.000000 -0.102657 0.046162 0.202260 0.363938 
0.529403 0.696829 0.864414 1.030430 1.193271 1.351478 
1.503767 1.649036 1.786362 1.915003 2.034376 2.144046 
2.243708 2.333163 2.412309 2.481116 2.539621 2.587910 
2.626113 2.654398 2.672960 2.682023 2.681835 2.672662 
2.654788 2.628510 2.594135 2.551975 2.502342 2.445544 
2.381878 2.311624 2.235042 2.152365 2.063795 1.969495 
1.869594 1.764175 1.653284 1.536920 1.415046 1.287587 
1.154438 1.015475 0.870563 0.719572 0.562399 0.398987 
0.229358 0.053642 -0.127881 -0.314741 -0.506233 -0.701371 
-0.898850 -1.097011 -1.293828 -1.486914 -1.673555 -1.850790 
-2.015519 -2.164657 -2.295310 -2.404973 -2.491713 -2.554327 
-2.592446 -2.606562 -2.597991 -2.568752 -2.521397 -2.458812 
-2.384007 -2.299929 -2.209301 -2.114516 -2.017573 -1.920046 
-1.823099 -1.727513 -1.633741 -1.541957 -1.452113 -1.363992 
-1.277256 0.000000 0.000000 -0.074728 0.072340 0.225068 
0.382011 0.541672 0.702540 0.863127 1.022001 1.177813 
1.329317 1.475386 1.615019 1.747345 1.871618 1.987218 
2.093638 2.190480 2.277443 2.354316 2.420971 2.477351 
2.523470 2.559402 2.585278 2.601279 2.607636 2.604617 
2.592527 2.571702 2.542497 2.505286 2.460449 2.408368 
2.349417 2.283955 2.212319 2.134819 2.051730 1.963287 
1.869682 1.771059 1.667514 1.559093 1.445792 1.327561 
1.204303 1.075885 0.942140 0.802882 0.657916 0.507056 
0.350145 0.187083 0.017853 -0.157436 -0.338512 -0.524893 
-0.715836 -0.910290 -1.106853 -1.303734 -1.498740 -1.689288 
-1.872449 -2.045034 -2.203732 -2.345279 -2.466662 -2.565341 
-2.639444 -2.687933 -2.710698 -2.708566 -2.683230 -2.637093 
-2.573068 -2.494345 -2.404165 -2.305627 -2.201532 -2.094286 
-1.985849 -1.877727 -1.770999 -1.666362 -1.564189 -1.464590 
-1.367475 -1.272602 0.000000 0.000000 -0.043414 0.101121 
0.249809 0.401442 0.554781 0.708585 0.861635 1.012747 
1.160794 1.304718 1.443538 1.576357 1.702368 1.820854 
1.931188 2.032833 2.125343 2.208357 2.281598 2.344873 
2.398067 2.441145 2.474144 2.497171 2.510400 2.514063 
2.508445 2.493878 2.470731 2.439399 2.400299 2.353854 
2.300488 2.240614 2.174627 2.102895 2.025752 1.943492 
1.856363 1.764566 1.668247 1.567499 1.462362 1.352820 
1.238803 1.120195 0.996833 0.868516 0.735013 0.596075 
0.451450 0.300899 0.144223 -0.018712 -0.187940 -0.363352 
-0.544654 -0.731312 -0.922499 -1.117041 -1.313371 -1.509488 
-1.702952 -1.890899 -2.070103 -2.237086 -2.388283 -2.520244 
-2.629874 -2.714670 -2.772943 -2.803969 -2.808065 -2.786558 
-2.741666 -2.676296 -2.593796 -2.497697 -2.391471 -2.278337 
-2.161122 -2.042185 -1.923385 -1.806101 -1.691275 -1.579472 
-1.470951 -1.365729 -1.263645 0.000000 0.000000 -0.009623 
0.131726 0.275847 0.421741 0.568398 0.714807 0.859971 
1.002920 1.142715 1.278460 1.409310 1.534471 1.653211 
1.764858 1.868810 1.964532 2.051565 2.129525 2.198105 
2.257081 2.306308 2.345724 2.375346 2.395269 2.405661 
2.406755 2.398847 2.382279 2.357439 2.324742 2.284622 
2.237523 2.183887 2.124141 2.058692 1.987915 1.912150 
1.831691 1.746785 1.657625 1.564350 1.467042 1.365727 
1.260373 1.150893 1.037148 0.918950 0.796068 0.668236 
0.535161 0.396538 0.252063 0.101457 -0.055510 -0.218985 
-0.388997 -0.565407 -0.747859 -0.935721 -1.128021 -1.323392 
-1.520021 -1.715611 -1.907383 -2.092107 -2.266189 -2.425818 
-2.567171 -2.686655 -2.781185 -2.848449 -2.887122 -2.897003 
-2.879040 -2.835243 -2.768490 -2.682274 -2.580403 -2.466724 
-2.344875 -2.218110 -2.089186 -1.960316 -1.833175 -1.708939 
-1.588354 -1.471807 -1.359406 -1.251045 0.000000 0.000000 
0.025849 0.163474 0.302614 0.442460 0.582196 0.721009 
0.858090 0.992645 1.123899 1.251098 1.373519 1.490470 
1.601299 1.705397 1.802202 1.891210 1.971975 2.044121 
2.107339 2.161401 2.206154 2.241528 2.267535 2.284263 
2.291877 2.290610 2.280755 2.262659 2.236707 2.203317 
2.162924 2.115969 2.062891 2.004112 1.940030 1.871014 
1.797389 1.719439 1.637395 1.551437 1.461688 1.368214 
1.271023 1.170067 1.065241 0.956385 0.843292 0.725704 
0.603326 0.475832 0.342873 0.204096 0.059157 -0.092250 
-0.250366 -0.415331 -0.587138 -0.765579 -0.950186 -1.140167 
-1.334333 -1.531041 -1.728135 -1.922926 -2.112202 -2.292288 
-2.459178 -2.608725 -2.736898 -2.840081 -2.915381 -2.960899 
-2.975930 -2.961043 -2.918032 -2.849741 -2.759795 -2.652276 
-2.531395 -2.401207 -2.265387 -2.127084 -1.988851 -1.852645 
-1.719860 -1.591401 -1.467764 -1.349124 -1.235414 0.000000 
0.000000 0.062309 0.195766 0.329607 0.463187 0.595860 
0.726977 0.855889 0.981954 1.104535 1.223007 1.336756 
1.445191 1.547742 1.643871 1.733073 1.814891 1.888916 
1.954798 2.012249 2.061055 2.101074 2.132241 2.154568 
2.168145 2.173133 2.169758 2.158309 2.139118 2.112563 
2.079044 2.038981 1.992797 1.940911 1.883725 1.821616 
1.754929 1.683968 1.608995 1.530220 1.447802 1.361843 
1.272392 1.179439 1.082918 0.982706 0.878629 0.770457 
0.657916 0.540687 0.418416 0.290722 0.157210 0.017488 
-0.128814 -0.282013 -0.442337 -0.609889 -0.784585 -0.966097 
-1.153785 -1.346619 -1.543102 -1.741212 -1.938348 -2.131325 
-2.316413 -2.489445 -2.646000 -2.781660 -2.892332 -2.974589 
-3.026000 -3.045387 -3.032956 -2.990295 -2.920215 -2.826470 
-2.713407 -2.585598 -2.447500 -2.303193 -2.156199 -2.009394 
-1.864990 -1.724575 -1.589189 -1.459414 -1.335471 -1.217309 
0.000000 0.000000 0.099158 0.228088 0.356385 0.483552 
0.609088 0.732484 0.853230 0.970810 1.084712 1.194421 
1.299430 1.399241 1.493369 1.581352 1.662754 1.737174 
1.804252 1.863682 1.915210 1.958648 1.993875 2.020839 
2.039562 2.050131 2.052705 2.047501 2.034790 2.014889 
1.988149 1.954948 1.915676 1.870727 1.820487 1.765327 
1.705594 1.641602 1.573626 1.501899 1.426607 1.347882 
1.265808 1.180412 1.091666 0.999488 0.903739 0.804230 
0.700716 0.592907 0.480466 0.363017 0.240153 0.111448 
-0.023530 -0.165201 -0.313941 -0.470056 -0.633733 -0.804993 
-0.983626 -1.169119 -1.360574 -1.556628 -1.755370 -1.954284 
-2.150213 -2.339386 -2.517501 -2.679901 -2.821831 -2.938771 
-3.026820 -3.083062 -3.105886 -3.095173 -3.052326 -2.980133 
-2.882482 -2.763980 -2.629544 -2.484016 -2.331855 -2.176929 
-2.022406 -1.870723 -1.723635 -1.582287 -1.447324 -1.318990 
-1.197234 0.000000 0.000000 0.135879 0.259989 0.382560 
0.503223 0.621600 0.737308 0.849952 0.959131 1.064440 
1.165468 1.261804 1.353041 1.438779 1.518635 1.592243 
1.659267 1.719408 1.772405 1.818050 1.856187 1.886722 
1.909619 1.924910 1.932683 1.933089 1.926333 1.912664 
1.892374 1.865785 1.833238 1.795088 1.751690 1.703394 
1.650532 1.593412 1.532313 1.467479 1.399110 1.327363 
1.252348 1.174124 1.092698 1.008026 0.920008 0.828494 
0.733279 0.634108 0.530676 0.422633 0.309585 0.191106 
0.066745 -0.063964 -0.201477 -0.346222 -0.498561 -0.658756 
-0.826910 -1.002911 -1.186350 -1.376442 -1.571931 -1.771004 
-1.971213 -2.169429 -2.361841 -2.544036 -2.711149 -2.858131 
-2.980092 -3.072707 -3.132638 -3.157897 -3.148079 -3.104440 
-3.029765 -2.928083 -2.804256 -2.663528 -2.511097 -2.351773 
-2.189732 -2.028394 -1.870388 -1.717599 -1.571253 -1.432030 
-1.300181 -1.175636 0.000000 0.000000 0.172028 0.291081 
0.407790 0.521898 0.633137 0.741230 0.845886 0.946807 
1.043683 1.136198 1.224033 1.306867 1.384385 1.456278 
1.522258 1.582053 1.635425 1.682167 1.722115 1.755150 
1.781204 1.800261 1.812358 1.817585 1.816084 1.808039 
1.793678 1.773261 1.747074 1.715420 1.678612 1.636964 
1.590782 1.540356 1.485955 1.427820 1.366159 1.301141 
1.232894 1.161502 1.087001 1.009380 0.928578 0.844480 
0.756923 0.665692 0.570520 0.471093 0.367047 0.257977 
0.143441 0.022966 -0.103936 -0.237754 -0.378953 -0.527944 
-0.685046 -0.850430 -1.024060 -1.205613 -1.394393 -1.589231 
-1.788391 -1.989478 -2.189379 -2.384249 -2.569569 -2.740297 
-2.891127 -3.016846 -3.112771 -3.175202 -3.201835 -3.192040 
-3.146963 -3.069418 -2.963582 -2.834565 -2.687917 -2.529161 
-2.363413 -2.195114 -2.027895 -1.864537 -1.707020 -1.556620 
-1.414033 -1.279497 -1.152911 0.000000 0.000000 0.207221 
0.321026 0.431775 0.539310 0.643461 0.744044 0.840864 
0.933711 1.022368 1.106606 1.186191 1.260885 1.330451 
1.394660 1.453291 1.506142 1.553032 1.593807 1.628346 
1.656567 1.678426 1.693924 1.703104 1.706053 1.702900 
1.693809 1.678981 1.658641 1.633039 1.602436 1.567102 
1.527305 1.483307 1.435357 1.383682 1.328485 1.269938 
1.208179 1.143307 1.075382 1.004418 0.930384 0.853204 
0.772750 0.688847 0.601270 0.509744 0.413944 0.313499 
0.207993 0.096969 -0.020058 -0.143597 -0.274161 -0.412246 
-0.558301 -0.712687 -0.875630 -1.047153 -1.226998 -1.414538 
-1.608669 -1.807711 -2.009305 -2.210341 -2.406935 -2.594470 
-2.767747 -2.921237 -3.049456 -3.147422 -3.211143 -3.238067 
-3.227400 -3.180232 -3.099431 -2.989338 -2.855300 -2.703145 