# vtk DataFile Version 1.0
vtk output
ASCII
DATASET POLYDATA
POINTS 961 float
-0.996474 -0.009329 -0.997198 -0.871857 0.051018 -0.998435 
-0.753299 0.105782 -0.999503 -0.640581 0.155120 -1.000410 
-0.533483 0.199190 -1.001165 -0.431786 0.238147 -1.001778 
-0.335269 0.272150 -1.002256 -0.243712 0.301355 -1.002608 
-0.156897 0.325918 -1.002844 -0.074603 0.345998 -1.002973 
0.003389 0.361749 -1.003003 0.077299 0.373331 -1.002943 
0.147347 0.380899 -1.002802 0.213752 0.384610 -1.002589 
0.276735 0.384621 -1.002313 0.336514 0.381090 -1.001983 
0.393310 0.374172 -1.001607 0.447343 0.364026 -1.001194 
0.498831 0.350807 -1.000754 0.547995 0.334673 -1.000294 
0.595055 0.315781 -0.999825 0.640230 0.294287 -0.999354 
0.683740 0.270348 -0.998892 0.725804 0.244122 -0.998445 
0.766643 0.215766 -0.998025 0.806476 0.185435 -0.997638 
0.845523 0.153287 -0.997295 0.884003 0.119480 -0.997003 
0.922137 0.084169 -0.996773 0.960143 0.047512 -0.996612 
0.998242 0.009665 -0.996530 -0.977670 -0.007419 -0.920419 
-0.854548 0.056208 -0.921008 -0.737440 0.114177 -0.921577 
-0.626124 0.166632 -0.922125 -0.520380 0.213718 -0.922651 
-0.419984 0.255579 -0.923155 -0.324716 0.292361 -0.923636 
-0.234353 0.324209 -0.924094 -0.148674 0.351266 -0.924528 
-0.067458 0.373678 -0.924938 0.009519 0.391590 -0.925324 
0.082477 0.405147 -0.925685 0.151638 0.414492 -0.926020 
0.217224 0.419772 -0.926329 0.279456 0.421130 -0.926612 
0.338557 0.418712 -0.926868 0.394749 0.412662 -0.927096 
0.448252 0.403125 -0.927296 0.499289 0.390246 -0.927468 
0.548081 0.374170 -0.927611 0.594850 0.355041 -0.927725 
0.639818 0.333004 -0.927809 0.683207 0.308204 -0.927862 
0.725238 0.280786 -0.927885 0.766134 0.250894 -0.927876 
0.806115 0.218674 -0.927835 0.845404 0.184269 -0.927763 
0.884222 0.147826 -0.927657 0.922791 0.109488 -0.927518 
0.961333 0.069400 -0.927346 1.000070 0.027708 -0.927139 
-0.961449 -0.005733 -0.845171 -0.839803 0.060978 -0.845212 
-0.724106 0.121957 -0.845361 -0.614137 0.177337 -0.845608 
-0.509672 0.227253 -0.845945 -0.410491 0.271836 -0.846364 
-0.316371 0.311222 -0.846856 -0.227090 0.345544 -0.847413 
-0.142426 0.374935 -0.848026 -0.062157 0.399529 -0.848686 
0.013939 0.419459 -0.849385 0.086085 0.434860 -0.850115 
0.154502 0.445865 -0.850866 0.219412 0.452607 -0.851632 
0.281038 0.455220 -0.852402 0.339601 0.453838 -0.853168 
0.395324 0.448594 -0.853923 0.448428 0.439623 -0.854657 
0.499136 0.427057 -0.855362 0.547670 0.411030 -0.856030 
0.594251 0.391676 -0.856651 0.639103 0.369128 -0.857218 
0.682446 0.343520 -0.857721 0.724504 0.314986 -0.858153 
0.765497 0.283660 -0.858505 0.805649 0.249674 -0.858768 
0.845181 0.213163 -0.858934 0.884315 0.174260 -0.858994 
0.923274 0.133099 -0.858940 0.962279 0.089813 -0.858763 
1.001553 0.044536 -0.858455 -0.947675 -0.004260 -0.771366 
-0.827476 0.065340 -0.770952 -0.713145 0.129137 -0.770754 
-0.604460 0.187253 -0.770756 -0.501200 0.239813 -0.770942 
-0.403145 0.286939 -0.771298 -0.310074 0.328756 -0.771808 
-0.221766 0.365385 -0.772456 -0.138000 0.396952 -0.773227 
-0.058555 0.423579 -0.774107 0.016790 0.445389 -0.775080 
0.088255 0.462506 -0.776129 0.156061 0.475054 -0.777242 
0.220430 0.483155 -0.778400 0.281581 0.486933 -0.779591 
0.339737 0.486512 -0.780798 0.395117 0.482014 -0.782005 
0.447943 0.473564 -0.783199 0.498435 0.461284 -0.784363 
0.546815 0.445299 -0.785482 0.593303 0.425730 -0.786540 
0.638119 0.402703 -0.787523 0.681486 0.376339 -0.788415 
0.723623 0.346763 -0.789201 0.764752 0.314098 -0.789866 
0.805093 0.278467 -0.790394 0.844867 0.239994 -0.790770 
0.884296 0.198802 -0.790978 0.923599 0.155014 -0.791004 
0.962998 0.108754 -0.790832 1.002714 0.060145 -0.790447 
-0.936209 -0.002986 -0.698914 -0.817421 0.069308 -0.698133 
-0.704402 0.135731 -0.697657 -0.596936 0.196395 -0.697464 
-0.494803 0.251417 -0.697535 -0.397786 0.300908 -0.697847 
-0.305665 0.344984 -0.698380 -0.218224 0.383759 -0.699113 
-0.135244 0.417345 -0.700025 -0.056505 0.445858 -0.701095 
0.018209 0.469412 -0.702303 0.089117 0.488120 -0.703627 
0.156438 0.502096 -0.705047 0.220390 0.511455 -0.706541 
0.281190 0.516310 -0.708088 0.339058 0.516776 -0.709669 
0.394212 0.512966 -0.711261 0.446869 0.504994 -0.712844 
0.497248 0.492975 -0.714397 0.545568 0.477022 -0.715899 
0.592047 0.457250 -0.717330 0.636902 0.433772 -0.718667 
0.680353 0.406702 -0.719891 0.722617 0.376155 -0.720981 
0.763913 0.342245 -0.721915 0.804459 0.305085 -0.722672 
0.844473 0.264789 -0.723232 0.884174 0.221472 -0.723575 
0.923779 0.175247 -0.723678 0.963508 0.126228 -0.723520 
1.003579 0.074530 -0.723082 -0.926916 -0.001899 -0.627725 
-0.809490 0.072895 -0.626658 -0.697725 0.141753 -0.625968 
-0.591406 0.204780 -0.625629 -0.490320 0.262082 -0.625615 
-0.394251 0.313763 -0.625902 -0.302985 0.359930 -0.626463 
-0.216308 0.400688 -0.627274 -0.134006 0.436142 -0.628309 
-0.055863 0.466398 -0.629543 0.018336 0.491561 -0.630950 
0.088803 0.511737 -0.632505 0.155754 0.527030 -0.634182 
0.219404 0.537547 -0.635956 0.279967 0.543393 -0.637802 
0.337657 0.544673 -0.639694 0.392689 0.541493 -0.641607 
0.445278 0.533959 -0.643515 0.495637 0.522174 -0.645393 
0.543982 0.506246 -0.647215 0.590527 0.486280 -0.648957 
0.635487 0.462380 -0.650592 0.679075 0.434652 -0.652095 
0.721507 0.403203 -0.653442 0.762998 0.368136 -0.654605 
0.803760 0.329558 -0.655561 0.844010 0.287574 -0.656283 
0.883961 0.242290 -0.656747 0.923829 0.193811 -0.656926 
0.963827 0.142241 -0.656795 1.004170 0.087688 -0.656330 
-0.919659 -0.000986 -0.557712 -0.803537 0.076115 -0.556434 
-0.692959 0.147219 -0.555587 -0.587713 0.212423 -0.555145 
-0.487590 0.271826 -0.555076 -0.392380 0.325524 -0.555354 
-0.301874 0.373616 -0.555948 -0.215862 0.416199 -0.556830 
-0.134134 0.453370 -0.557971 -0.056480 0.485227 -0.559343 
0.017309 0.511868 -0.560916 0.087443 0.533391 -0.562661 
0.154132 0.549893 -0.564549 0.217586 0.561471 -0.566553 
0.278014 0.568223 -0.568642 0.335626 0.570248 -0.570787 
0.390632 0.567642 -0.572961 0.443241 0.560503 -0.575134 
0.493663 0.548928 -0.577277 0.542109 0.533016 -0.579362 
0.588787 0.512864 -0.581359 0.633908 0.488570 -0.583239 
0.677681 0.460230 -0.584974 0.720316 0.427944 -0.586535 
0.762023 0.391807 -0.587893 0.803011 0.351919 -0.589018 
0.843490 0.308377 -0.589883 0.883670 0.261277 -0.590458 
0.923761 0.210719 -0.590715 0.963972 0.156799 -0.590624 
1.004513 0.099615 -0.590156 -0.914299 -0.000235 -0.488785 
-0.799416 0.078980 -0.487363 -0.689950 0.152143 -0.486415 
-0.585697 0.219342 -0.485908 -0.486452 0.280668 -0.485812 
-0.392012 0.336212 -0.486094 -0.302172 0.386064 -0.486724 
-0.216728 0.430316 -0.487671 -0.135476 0.469056 -0.488902 
-0.058212 0.502377 -0.490387 0.015268 0.530367 -0.492094 
0.085169 0.553119 -0.493992 0.151694 0.570721 -0.496049 
0.215047 0.583266 -0.498233 0.275434 0.590843 -0.500515 
0.333057 0.593542 -0.502861 0.388121 0.591455 -0.505242 
0.440830 0.584672 -0.507624 0.491389 0.573283 -0.509978 
0.540001 0.557378 -0.512271 0.586870 0.537049 -0.514472 
0.632201 0.512386 -0.516550 0.676198 0.483478 -0.518474 
0.719064 0.450418 -0.520212 0.761004 0.413295 -0.521732 
0.802223 0.372199 -0.523003 0.842924 0.327222 -0.523995 
0.883311 0.278454 -0.524675 0.923588 0.225984 -0.525011 
0.963960 0.169905 -0.524974 1.004631 0.110305 -0.524531 
-0.910701 0.000366 -0.420855 -0.796981 0.081505 -0.419352 
-0.688547 0.156539 -0.418350 -0.585201 0.225551 -0.417815 
-0.486747 0.288625 -0.417714 -0.392985 0.345846 -0.418014 
-0.303719 0.397298 -0.418683 -0.218750 0.443064 -0.419687 
-0.137880 0.483229 -0.420993 -0.060912 0.517876 -0.422569 
0.012352 0.547090 -0.424380 0.082111 0.570954 -0.426396 
0.148561 0.589554 -0.428581 0.211902 0.602972 -0.430904 
0.272330 0.611292 -0.433331 0.330043 0.614600 -0.435829 
0.385240 0.612978 -0.438365 0.438118 0.606511 -0.440907 
0.488876 0.595283 -0.443421 0.537710 0.579377 -0.445875 
0.584819 0.558879 -0.448235 0.630401 0.533871 -0.450468 
0.674653 0.504439 -0.452541 0.717773 0.470665 -0.454422 
0.759960 0.432634 -0.456077 0.801410 0.390430 -0.457474 
0.842323 0.344137 -0.458579 0.882895 0.293839 -0.459359 
0.923325 0.239620 -0.459782 0.963811 0.181564 -0.459813 
1.004549 0.119756 -0.459422 -0.908727 0.000831 -0.353831 
-0.796083 0.083702 -0.352304 -0.688594 0.160422 -0.351292 
-0.586067 0.231067 -0.350760 -0.488313 0.295716 -0.350676 
-0.395139 0.354447 -0.351005 -0.306356 0.407338 -0.351713 
-0.221772 0.454468 -0.352768 -0.141195 0.495914 -0.354135 
-0.064435 0.531755 -0.355780 0.008700 0.562069 -0.357669 
0.078400 0.586933 -0.359770 0.144857 0.606427 -0.362047 
0.208261 0.620628 -0.364467 0.268804 0.629614 -0.366997 
0.326677 0.633464 -0.369603 0.382071 0.632255 -0.372250 
0.435176 0.626066 -0.374906 0.486185 0.614975 -0.377536 
0.535289 0.599060 -0.380106 0.582677 0.578399 -0.382584 
0.628542 0.553071 -0.384934 0.673074 0.523153 -0.387123 
0.716465 0.488723 -0.389118 0.758905 0.449861 -0.390884 
0.800587 0.406643 -0.392389 0.841699 0.359148 -0.393597 
0.882435 0.307454 -0.394476 0.922985 0.251640 -0.394991 
0.963540 0.191783 -0.395109 1.004291 0.127962 -0.394796 
-0.908240 0.001171 -0.287627 -0.796578 0.085586 -0.286124 
-0.689938 0.163806 -0.285140 -0.588136 0.235906 -0.284640 
-0.490989 0.301958 -0.284590 -0.398313 0.362035 -0.284957 
-0.309923 0.416209 -0.285706 -0.225636 0.464554 -0.286805 
-0.145267 0.507141 -0.288218 -0.068633 0.544045 -0.289913 
0.004450 0.575337 -0.291855 0.074167 0.601091 -0.294012 
0.140702 0.621379 -0.296348 0.204238 0.636274 -0.298830 
0.264959 0.645849 -0.301424 0.323050 0.650177 -0.304097 
0.378695 0.649330 -0.306814 0.432076 0.643382 -0.309543 
0.483380 0.632405 -0.312248 0.532789 0.616471 -0.314897 
0.580488 0.595654 -0.317456 0.626660 0.570027 -0.319890 
0.671489 0.539662 -0.322165 0.715161 0.504632 -0.324249 
0.757858 0.465010 -0.326108 0.799764 0.420869 -0.327706 
0.841064 0.372281 -0.329011 0.881942 0.319320 -0.329990 
0.922581 0.262057 -0.330607 0.963166 0.200567 -0.330829 
1.003881 0.134921 -0.330623 -0.909104 0.001400 -0.222151 
[...]
POINT_DATA 961
SCALARS scalars float
LOOKUP_TABLE default
0.000000 0.000000 0.000000 0.000000 0.000000 0.000000 
0.000000 0.000000 0.000000 0.000000 0.000000 0.000000 
0.000000 0.000000 0.000000 0.000000 0.000000 0.000000 
0.000000 0.000000 0.000000 0.000000 0.000000 0.000000 
0.000000 0.000000 0.000000 0.000000 0.000000 0.000000 
0.000000 0.000000 -0.154198 -0.208931 -0.267332 -0.329517 
-0.395600 -0.465711 -0.539997 -0.618613 -0.701683 -0.789241 
-0.881120 -0.976804 -1.075237 -1.174604 -1.272144 -1.364050 
-1.445559 -1.511298 -1.555910 -1.574860 -1.565241 -1.526324 
-1.459689 -1.368870 -1.258646 -1.134173 -1.000182 -0.860371 
-0.717067 0.000000 0.000000 -0.117739 -0.173244 -0.232860 
-0.296866 -0.365584 -0.439392 -0.518721 -0.604031 -0.695758 
-0.794210 -0.899405 -1.010838 -1.127180 -1.245945 -1.363198 
-1.473448 -1.569863 -1.644946 -1.691635 -1.704617 -1.681458 
-1.623138 -1.533807 -1.419849 -1.288610 -1.147163 -1.001394 
-0.855501 -0.711864 0.000000 0.000000 -0.084928 -0.141389 
-0.202287 -0.268047 -0.339184 -0.416315 -0.500155 -0.591489 
-0.691096 -0.799615 -0.917321 -1.043795 -1.177484 -1.315219 
-1.451784 -1.579781 -1.690028 -1.772668 -1.818913 -1.822963 
-1.783431 -1.703672 -1.590902 -1.454502 -1.304145 -1.148317 
-0.993452 -0.843682 -0.700985 0.000000 0.000000 -0.056252 
-0.113897 -0.176197 -0.243706 -0.317117 -0.397269 -0.485155 
-0.581882 -0.688590 -0.806281 -0.935537 -1.076082 -1.226194 
-1.382025 -1.537011 -1.681692 -1.804334 -1.892594 -1.936041 
-1.928767 -1.871002 -1.769010 -1.633338 -1.476246 -1.309324 
-1.141911 -0.980472 -0.828668 -0.687831 0.000000 0.000000 
-0.032123 -0.091197 -0.155048 -0.224344 -0.299933 -0.382865 
-0.474389 -0.575924 -0.688967 -0.814893 -0.954618 -1.108051 
-1.273341 -1.445985 -1.618045 -1.777914 -1.911206 -2.003080 
-2.041655 -2.021324 -1.944431 -1.820497 -1.663418 -1.488025 
-1.307315 -1.130980 -0.965117 -0.812685 -0.674263 0.000000 
0.000000 -0.012867 -0.073617 -0.139176 -0.210314 -0.288020 
-0.373528 -0.468327 -0.574124 -0.692754 -0.825959 -0.974987 
-1.139952 -1.318906 -1.506722 -1.694099 -1.867282 -2.009247 
-2.102759 -2.134758 -2.100337 -2.004326 -1.859631 -1.683302 
-1.492302 -1.300539 -1.117639 -0.949079 -0.797012 -0.661265 
0.000000 0.000000 0.001282 -0.061375 -0.128791 -0.201827 
-0.281598 -0.369504 -0.467241 -0.576783 -0.700269 -0.839779 
-0.996882 -1.171891 -1.362777 -1.563825 -1.764428 -1.948759 
-2.097278 -2.190576 -2.214733 -2.165890 -2.051564 -1.887964 
-1.694941 -1.491098 -1.290807 -1.103333 -0.933399 -0.782347 
-0.649312 0.000000 0.000000 0.010185 -0.054578 -0.123977 
-0.198953 -0.280731 -0.370856 -0.471209 -0.583988 -0.711606 
-0.856439 -1.020340 -1.203803 -1.404721 -1.616837 -1.828327 
-2.021443 -2.174361 -2.265804 -2.281333 -2.218393 -2.087207 
-1.907030 -1.700048 -1.486027 -1.279444 -1.089018 -0.918686 
-0.769031 -0.638589 0.000000 0.000000 0.013811 -0.053215 
-0.124686 -0.201616 -0.285324 -0.377478 -0.480114 -0.595622 
-0.726641 -0.875798 -1.045184 -1.235440 -1.444379 -1.665248 
-1.885134 -2.084590 -2.239822 -2.328058 -2.334664 -2.258526 
-2.112432 -1.918278 -1.700085 -1.478349 -1.267392 -1.075300 
-0.905259 -0.757184 -0.629119 0.000000 0.000000 0.012236 
-0.057159 -0.130747 -0.209603 -0.295128 -0.389091 -0.493654 
-0.611361 -0.745033 -0.897497 -1.071027 -1.266374 -1.481262 
-1.708502 -1.934248 -2.137631 -2.293267 -2.377287 -2.375143 
-2.287179 -2.128460 -1.923037 -1.696266 -1.469019 -1.255291 
-1.062530 -0.893244 -0.746794 -0.620829 0.000000 0.000000 
0.005649 -0.066164 -0.141858 -0.222562 -0.309744 -0.405253 
-0.511348 -0.630692 -0.766242 -0.920972 -1.097289 -1.296010 
-1.514773 -1.746018 -1.975150 -2.180194 -2.334587 -2.413758 
-2.403456 -2.305387 -2.136503 -1.922488 -1.689575 -1.458734 
-1.243550 -1.050871 -0.882638 -0.737764 -0.613599 0.000000 
0.000000 -0.005651 -0.079865 -0.157593 -0.240008 -0.328630 
-0.425365 -0.532548 -0.652922 -0.789540 -0.945475 -1.123221 
-1.323626 -1.544243 -1.777230 -2.007442 -2.212128 -2.363962 
-2.438031 -2.420513 -2.314282 -2.137729 -1.917656 -1.680782 
-1.447976 -1.232391 -1.040355 -0.873347 -0.729945 -0.607278 
0.000000 0.000000 -0.021252 -0.097781 -0.177404 -0.261326 
-0.351102 -0.448683 -0.556448 -0.677197 -0.814041 -0.970110 
-1.147946 -1.348406 -1.568978 -1.801630 -2.030876 -2.233519 
-2.381856 -2.450928 -2.427395 -2.315040 -2.133228 -1.909410 
-1.670470 -1.437052 -1.221898 -1.030910 -0.865218 -0.723157 
-0.601702 0.000000 0.000000 -0.040636 -0.119321 -0.200624 
-0.285774 -0.376348 -0.474323 -0.582106 -0.702528 -0.838728 
-0.993869 -1.170509 -1.369508 -1.588318 -1.818821 -2.045396 
-2.244703 -2.388994 -2.453490 -2.425306 -2.308846 -2.124002 
-1.898472 -1.659062 -1.426125 -1.212043 -1.022389 -0.858050 
-0.717192 -0.596696 0.000000 0.000000 -0.063185 -0.143786 
-0.226477 -0.312497 -0.403437 -0.501286 -0.608466 -0.727821 
-0.862504 -1.015687 -1.189938 -1.386120 -1.601695 -1.828565 
-2.051162 -2.246265 -2.386340 -2.446932 -2.415534 -2.296864 
-2.110957 -1.885430 -1.646845 -1.415243 -1.202710 -1.014589 
-0.851605 -0.711826 -0.592075 0.000000 0.000000 -0.088187 
-0.170382 -0.254085 -0.340537 -0.431335 -0.528476 -0.634389 
-0.751922 -0.884235 -1.034503 -1.205304 -1.397527 -1.608693 
-1.830825 -2.048571 -2.239029 -2.375063 -2.432605 -2.399405 
-2.280218 -2.094902 -1.870755 -1.633994 -1.404359 -1.193714 
-1.007255 -0.845618 -0.706817 -0.587646 0.000000 0.000000 
-0.114846 -0.198227 -0.282480 -0.368849 -0.458934 -0.554737 
-0.658694 -0.773662 -0.902807 -1.049317 -1.215791 -1.403173 
-1.609096 -1.825795 -2.038255 -2.224034 -2.356491 -2.411943 
-2.378253 -2.259978 -2.076556 -1.854819 -1.620593 -1.393355 
-1.184817 -1.000098 -0.839794 -0.701905 -0.583203 0.000000 
0.000000 -0.142295 -0.226365 -0.310629 -0.396330 -0.485078 
-0.578886 -0.680208 -0.791916 -0.917196 -1.059260 -1.220755 
-1.402711 -1.602924 -1.813909 -2.021072 -2.202500 -2.332074 
-2.386429 -2.353397 -2.237150 -2.056556 -1.837909 -1.606652 
-1.382052 -1.175734 -0.992790 -0.833816 -0.696807 -0.578524 
0.000000 0.000000 -0.169605 -0.253785 -0.337447 -0.421844 
-0.508603 -0.599768 -0.697818 -0.805661 -0.926517 -1.063648 
-1.219770 -1.396034 -1.590442 -1.795835 -1.998074 -2.175787 
-2.303330 -2.357554 -2.326118 -2.212678 -2.035469 -1.820246 
-1.592124 -1.370224 -1.166140 -0.984975 -0.827338 -0.691222 
-0.573371 0.000000 0.000000 -0.195810 -0.279445 -0.361837 
-0.444264 -0.528390 -0.616301 -0.710530 -0.814032 -0.930088 
-1.062026 -1.212662 -1.383295 -1.572162 -1.772449 -1.970473 
-2.145351 -2.271814 -2.326793 -2.297644 -2.187443 -2.013795 
-1.801994 -1.576913 -1.357608 -1.155683 -0.976270 -0.819990 
-0.684826 -0.567484 0.000000 0.000000 -0.219924 -0.302301 
-0.382725 -0.462519 -0.543406 -0.627540 -0.717521 -0.816377 
-0.927464 -1.054199 -1.199518 -1.364893 -1.548811 -1.744801 
-1.939593 -2.112698 -2.239078 -2.295583 -2.269150 -2.162261 
-1.991980 -1.783269 -1.560888 -1.343906 -1.143977 -0.966262 
-0.811377 -0.677266 -0.560578 0.000000 0.000000 -0.240970 
-0.321341 -0.399101 -0.475640 -0.552766 -0.632720 -0.718189 
-0.812288 -0.918462 -1.040236 -1.180681 -1.341454 -1.521300 
-1.714067 -1.906826 -2.079352 -2.206651 -2.265309 -2.241751 
-2.137897 -1.970421 -1.764146 -1.543879 -1.328793 -1.130614 
-0.954517 -0.801079 -0.668170 -0.552346 0.000000 0.000000 
-0.258012 -0.335628 -0.410066 -0.482811 -0.555776 -0.631304 
-0.712183 -0.801622 -0.903167 -1.020457 -1.156711 -1.313784 
-1.490670 -1.681501 -1.873597 -2.046826 -2.176022 -2.237308 
-2.216507 -2.115061 -1.949466 -1.744661 -1.525687 -1.311914 
-1.115159 -0.940576 -0.788652 -0.657138 -0.542455 0.000000 
0.000000 -0.270197 -0.344343 -0.414882 -0.483415 -0.551973 
-0.623011 -0.699419 -0.784503 -0.881909 -0.995399 -1.128349 
-1.282819 -1.458045 -1.648397 -1.841329 -2.016609 -2.148645 
-2.212873 -2.194435 -2.094415 -1.929420 -1.724805 -1.506070 
-1.292884 -1.097152 -0.923957 -0.773635 -0.643751 -0.530553 
0.000000 0.000000 -0.276789 -0.346827 -0.413010 -0.477067 
-0.541151 -0.607824 -0.680072 -0.761290 -0.855227 -0.965769 
-1.096461 -1.249577 -1.424588 -1.616051 -1.811428 -1.990164 
-2.125946 -2.193269 -2.176514 -2.076581 -1.910535 -1.704520 
-1.484747 -1.271283 -1.076106 -0.904161 -0.755545 -0.627574 
-0.516266 0.000000 0.000000 -0.277217 -0.342624 -0.404146 
-0.463639 -0.523365 -0.585980 -0.654549 -0.732548 -0.823821 
-0.932390 -1.061982 -1.215102 -1.391458 -1.585744 -1.785286 
-1.968946 -2.109352 -2.179758 -2.163707 -2.062138 -1.893007 
-1.683686 -1.461379 -1.246649 -1.051508 -0.880669 -0.733892 
-0.608162 -0.499215 0.000000 0.000000 -0.271108 -0.331507 
-0.388237 -0.443258 -0.498919 -0.557942 -0.623450 -0.698986 
-0.788494 -0.896141 -1.025865 -1.180430 -1.359792 -1.558732 
-1.764286 -1.954429 -2.100323 -2.173632 -2.156976 -2.051625 
-1.876962 -1.662103 -1.435560 -1.218469 -1.022815 -0.852950 
-0.708180 -0.585069 -0.479014 0.000000 0.000000 -0.258315 
-0.313500 -0.365484 -0.416296 -0.468334 -0.524353 -0.587510 
-0.661408 -0.750095 -0.857909 -0.989040 -1.146558 -1.330688 
-1.536260 -1.749839 -1.948155 -2.100411 -2.176253 -2.157299 
-2.045535 -1.862434 -1.639470 -1.406794 -1.186174 -0.989451 
-0.820462 -0.677918 -0.557861 -0.455291 0.000000 0.000000 
-0.238937 -0.288875 -0.336324 -0.383335 -0.432303 -0.485982 
-0.547545 -0.620650 -0.709466 -0.818544 -0.952383 -1.114424 
-1.305211 -1.519582 -1.743429 -1.951798 -2.111319 -2.189102 
-2.165691 -2.044304 -1.849343 -1.615354 -1.374478 -1.149118 
-0.950807 -0.782660 -0.642628 -0.526125 -0.427700 0.000000 
0.000000 0.000000 0.000000 0.000000 0.000000 0.000000 
0.000000 0.000000 0.000000 0.000000 0.000000 0.000000 
0.000000 0.000000 0.000000 0.000000 0.000000 0.000000 
0.000000 0.000000 0.000000 0.000000 0.000000 0.000000 
0.000000 0.000000 0.000000 0.000000 0.000000 0.000000 
0.000000 
