# vtk DataFile Version 1.0
vtk output
ASCII
DATASET POLYDATA
POINTS 1600 float
-0.946259 0.065488 -0.992738 -0.862625 0.101954 -0.992973 
-0.779232 0.138178 -0.993204 -0.696417 0.173870 -0.993422 
-0.614515 0.208740 -0.993612 -0.533859 0.242499 -0.993765 
-0.454783 0.274858 -0.993867 -0.377568 0.305557 -0.993917 
-0.302427 0.334373 -0.993923 -0.229571 0.361084 -0.993894 
-0.159212 0.385470 -0.993840 -0.091559 0.407310 -0.993770 
-0.026796 0.426403 -0.993691 0.035077 0.442691 -0.993612 
0.094128 0.456164 -0.993536 0.150423 0.466815 -0.993469 
0.204031 0.474636 -0.993417 0.255018 0.479619 -0.993384 
0.303482 0.481781 -0.993372 0.349572 0.481183 -0.993379 
0.393439 0.477890 -0.993398 0.435238 0.471967 -0.993426 
0.475122 0.463478 -0.993459 0.513245 0.452493 -0.993493 
0.549765 0.439102 -0.993526 0.584843 0.423414 -0.993561 
0.618640 0.405535 -0.993598 0.651318 0.385571 -0.993638 
0.683036 0.363631 -0.993683 0.713947 0.339838 -0.993736 
0.744184 0.314357 -0.993804 0.773872 0.287361 -0.993893 
0.803140 0.259024 -0.994013 0.832114 0.229519 -0.994169 
0.860919 0.199017 -0.994371 0.889627 0.167682 -0.994619 
0.918265 0.135664 -0.994915 0.946859 0.103116 -0.995257 
0.975435 0.070192 -0.995644 1.004020 0.037042 -0.996075 
-0.945033 0.079855 -0.941075 -0.863076 0.114891 -0.941352 
-0.781306 0.149793 -0.941616 -0.700045 0.184271 -0.941858 
-0.619616 0.218035 -0.942069 -0.540340 0.250797 -0.942241 
-0.462538 0.282268 -0.942365 -0.386477 0.312190 -0.942439 
-0.312358 0.340344 -0.942472 -0.240379 0.366511 -0.942472 
-0.170738 0.390472 -0.942447 -0.103632 0.412009 -0.942405 
-0.039234 0.430923 -0.942354 0.022446 0.447143 -0.942300 
0.081457 0.460645 -0.942247 0.137851 0.471405 -0.942199 
0.191677 0.479398 -0.942161 0.242986 0.484601 -0.942136 
0.291860 0.487019 -0.942127 0.338436 0.486706 -0.942131 
0.382854 0.483720 -0.942145 0.425258 0.478122 -0.942168 
0.465788 0.469971 -0.942196 0.504588 0.459328 -0.942226 
0.541808 0.446288 -0.942259 0.577601 0.430960 -0.942294 
0.612122 0.413456 -0.942331 0.645524 0.393885 -0.942372 
0.677962 0.372359 -0.942415 0.709581 0.349006 -0.942464 
0.740507 0.323993 -0.942521 0.770859 0.297500 -0.942592 
0.800761 0.269701 -0.942682 0.830333 0.240774 -0.942795 
0.859693 0.210896 -0.942937 0.888916 0.180239 -0.943105 
0.918041 0.148972 -0.943293 0.947102 0.117266 -0.943494 
0.976138 0.085290 -0.943702 1.005185 0.053213 -0.943909 
-0.943926 0.094081 -0.889408 -0.863459 0.127857 -0.889737 
-0.783136 0.161594 -0.890041 -0.703265 0.195003 -0.890314 
-0.624155 0.227799 -0.890550 -0.546115 0.259695 -0.890743 
-0.469453 0.290404 -0.890889 -0.394423 0.319672 -0.890986 
-0.321216 0.347276 -0.891043 -0.250021 0.372998 -0.891068 
-0.181025 0.396621 -0.891068 -0.114415 0.417925 -0.891050 
-0.050356 0.436711 -0.891023 0.011133 0.452897 -0.890991 
0.070090 0.466446 -0.890958 0.126550 0.477319 -0.890926 
0.180551 0.485480 -0.890900 0.232129 0.490891 -0.890884 
0.281355 0.493546 -0.890878 0.328353 0.493493 -0.890882 
0.373255 0.490786 -0.890895 0.416193 0.485480 -0.890914 
0.457297 0.477627 -0.890938 0.496701 0.467286 -0.890967 
0.534546 0.454550 -0.890999 0.570980 0.439532 -0.891033 
0.606150 0.422346 -0.891070 0.640205 0.403106 -0.891109 
0.673291 0.381926 -0.891149 0.705548 0.358937 -0.891190 
0.737097 0.334314 -0.891235 0.768054 0.308239 -0.891286 
0.798535 0.280895 -0.891344 0.828658 0.252464 -0.891413 
0.858536 0.223129 -0.891493 0.888248 0.193071 -0.891581 
0.917837 0.162474 -0.891665 0.947350 0.131520 -0.891735 
0.976831 0.100391 -0.891780 1.006326 0.069270 -0.891790 
-0.942950 0.108098 -0.837757 -0.863799 0.140768 -0.838145 
-0.784758 0.173484 -0.838494 -0.706124 0.205962 -0.838802 
-0.628190 0.237920 -0.839065 -0.551253 0.269074 -0.839281 
-0.475607 0.299139 -0.839448 -0.401495 0.327862 -0.839567 
-0.329100 0.355020 -0.839645 -0.258603 0.380391 -0.839691 
-0.190184 0.403755 -0.839712 -0.124023 0.424892 -0.839715 
-0.060277 0.443598 -0.839708 0.001027 0.459782 -0.839694 
0.059917 0.473396 -0.839678 0.116417 0.484390 -0.839661 
0.170556 0.492715 -0.839647 0.222358 0.498324 -0.839638 
0.271883 0.501200 -0.839637 0.319248 0.501386 -0.839643 
0.364573 0.498932 -0.839655 0.407980 0.493886 -0.839673 
0.449593 0.486297 -0.839696 0.489533 0.476218 -0.839723 
0.527935 0.463743 -0.839754 0.564941 0.448986 -0.839788 
0.600694 0.432066 -0.839823 0.635333 0.413099 -0.839858 
0.669001 0.392201 -0.839893 0.701833 0.369507 -0.839926 
0.733945 0.345198 -0.839957 0.765450 0.319465 -0.839986 
0.796460 0.292497 -0.840012 0.827091 0.264483 -0.840036 
0.857451 0.235612 -0.840056 0.887622 0.206077 -0.840065 
0.917654 0.176069 -0.840051 0.947599 0.145781 -0.840000 
0.977509 0.115406 -0.839900 1.007434 0.085136 -0.839737 
-0.942113 0.121839 -0.786141 -0.864118 0.153540 -0.786592 
-0.786210 0.185368 -0.786989 -0.708670 0.217043 -0.787334 
-0.631781 0.248285 -0.787625 -0.555824 0.278811 -0.787864 
-0.481079 0.308343 -0.788051 -0.407781 0.336625 -0.788189 
-0.336107 0.363431 -0.788286 -0.266231 0.388535 -0.788350 
-0.198327 0.411714 -0.788388 -0.132570 0.432742 -0.788408 
-0.069113 0.451413 -0.788417 -0.007986 0.467627 -0.788420 
0.050829 0.481324 -0.788418 0.107350 0.492447 -0.788414 
0.161595 0.500937 -0.788410 0.213583 0.506736 -0.788410 
0.263363 0.509820 -0.788414 0.311043 0.510228 -0.788423 
0.356737 0.508002 -0.788436 0.400558 0.503189 -0.788454 
0.442618 0.495831 -0.788477 0.483033 0.485977 -0.788504 
0.521931 0.473721 -0.788534 0.559448 0.459181 -0.788566 
0.595720 0.442477 -0.788598 0.630884 0.423728 -0.788629 
0.665074 0.403052 -0.788658 0.698423 0.380588 -0.788681 
0.731042 0.356525 -0.788698 0.763042 0.331062 -0.788705 
0.794535 0.304396 -0.788699 0.825631 0.276723 -0.788679 
0.856440 0.248243 -0.788641 0.887040 0.219155 -0.788577 
0.917491 0.189658 -0.788471 0.947847 0.159955 -0.788311 
0.978165 0.130246 -0.788082 1.008502 0.100731 -0.787769 
-0.941426 0.135235 -0.734579 -0.864442 0.166090 -0.735095 
-0.787527 0.197152 -0.735541 -0.710952 0.228141 -0.735922 
-0.634985 0.258779 -0.736240 -0.559894 0.288787 -0.736500 
-0.485948 0.317887 -0.736705 -0.413370 0.345823 -0.736860 
-0.342335 0.372362 -0.736973 -0.273010 0.397276 -0.737052 
-0.205566 0.420336 -0.737105 -0.140172 0.441310 -0.737139 
-0.076978 0.459987 -0.737162 -0.016019 0.476260 -0.737178 
0.042719 0.490061 -0.737188 0.099245 0.501324 -0.737195 
0.153573 0.509981 -0.737202 0.205713 0.515965 -0.737209 
0.255710 0.519247 -0.737219 0.303664 0.519859 -0.737232 
0.349680 0.517841 -0.737248 0.393863 0.513234 -0.737267 
0.436318 0.506076 -0.737290 0.477154 0.496413 -0.737317 
0.516492 0.484339 -0.737347 0.554463 0.469974 -0.737377 
0.591199 0.453440 -0.737406 0.626831 0.434857 -0.737432 
0.661490 0.414348 -0.737453 0.695302 0.392055 -0.737467 
0.728378 0.368176 -0.737468 0.760827 0.342915 -0.737454 
0.792759 0.316482 -0.737418 0.824281 0.289080 -0.737357 
0.855502 0.260918 -0.737266 0.886504 0.232202 -0.737134 
0.917347 0.203142 -0.736947 0.948091 0.173945 -0.736689 
0.978795 0.144820 -0.736347 1.009521 0.115976 -0.735904 
-0.940898 0.148217 -0.683091 -0.864793 0.178335 -0.683670 
-0.788747 0.208739 -0.684163 -0.713017 0.239150 -0.684578 
-0.637860 0.269290 -0.684921 -0.563533 0.298880 -0.685199 
-0.490291 0.327642 -0.685419 -0.418351 0.355316 -0.685588 
-0.347880 0.381667 -0.685714 -0.279044 0.406460 -0.685806 
-0.212010 0.429458 -0.685871 -0.146942 0.450428 -0.685917 
-0.083988 0.469151 -0.685952 -0.023184 0.485512 -0.685978 
0.035477 0.499437 -0.685999 0.092000 0.510851 -0.686016 
0.146392 0.519679 -0.686031 0.198661 0.525847 -0.686045 
0.248844 0.529318 -0.686061 0.297035 0.530121 -0.686079 
0.343331 0.528292 -0.686098 0.387832 0.523868 -0.686120 
0.430636 0.516883 -0.686145 0.471844 0.507380 -0.686172 
0.511573 0.495452 -0.686201 0.549949 0.481222 -0.686230 
0.587098 0.464814 -0.686255 0.623149 0.446352 -0.686276 
0.658228 0.425960 -0.686289 0.692456 0.403783 -0.686292 
0.725944 0.380028 -0.686280 0.758799 0.354910 -0.686245 
0.791129 0.328645 -0.686182 0.823041 0.301447 -0.686084 
0.854642 0.273533 -0.685946 0.886014 0.245118 -0.685755 
0.917222 0.216420 -0.685497 0.948327 0.187655 -0.685156 
0.979393 0.159040 -0.684716 1.010483 0.130791 -0.684161 
-0.940529 0.160711 -0.631695 -0.865185 0.190189 -0.632332 
-0.789894 0.220035 -0.632868 -0.714902 0.249967 -0.633312 
-0.640455 0.279706 -0.633675 -0.566798 0.308970 -0.633967 
-0.494175 0.337479 -0.634199 -0.422796 0.364970 -0.634379 
-0.352824 0.391202 -0.634516 -0.284422 0.415933 -0.634618 
-0.217752 0.438924 -0.634692 -0.152976 0.459933 -0.634748 
-0.090238 0.478736 -0.634792 -0.029577 0.495213 -0.634828 
0.029010 0.509281 -0.634858 0.085524 0.520858 -0.634883 
0.139969 0.529862 -0.634905 0.192346 0.536213 -0.634927 
0.242689 0.539867 -0.634948 0.291085 0.540850 -0.634971 
0.337627 0.539194 -0.634995 0.382408 0.534931 -0.635020 
0.425519 0.528095 -0.635047 0.467057 0.518722 -0.635075 
0.507132 0.506908 -0.635104 0.545868 0.492777 -0.635130 
0.583387 0.476457 -0.635152 0.619812 0.458072 -0.635167 
0.655267 0.437750 -0.635172 0.689869 0.415641 -0.635166 
0.723728 0.391958 -0.635139 0.756949 0.366927 -0.635086 
0.789640 0.340771 -0.634999 0.821907 0.313714 -0.634870 
0.853855 0.285982 -0.634692 0.885569 0.257800 -0.634453 
0.917114 0.229393 -0.634136 0.948554 0.200989 -0.633725 
0.979955 0.172813 -0.633203 1.011382 0.145091 -0.632555 
-0.940307 0.172634 -0.580409 -0.865618 0.201566 -0.581095 
-0.790981 0.230947 -0.581664 -0.716630 0.260492 -0.582131 
-0.642801 0.289918 -0.582508 -0.569729 0.318939 -0.582809 
-0.497649 0.347271 -0.583048 -0.426763 0.374649 -0.583236 
-0.357231 0.400823 -0.583381 -0.289212 0.425548 -0.583490 
-0.222864 0.448577 -0.583573 -0.158348 0.469664 -0.583636 
-0.095804 0.488579 -0.583688 -0.035273 0.505194 -0.583731 
0.023244 0.519422 -0.583768 0.079745 0.531172 -0.583800 
0.134231 0.540357 -0.583829 0.186699 0.546890 -0.583857 
0.237179 0.550721 -0.583885 0.285754 0.551872 -0.583913 
0.332510 0.550374 -0.583942 0.377536 0.546254 -0.583970 
[...]
POINT_DATA 1600
SCALARS scalars float
LOOKUP_TABLE default
0.000000 0.000000 0.000000 0.000000 0.000000 0.000000 
0.000000 0.000000 0.000000 0.000000 0.000000 0.000000 
0.000000 0.000000 0.000000 0.000000 0.000000 0.000000 
0.000000 0.000000 0.000000 0.000000 0.000000 0.000000 
0.000000 0.000000 0.000000 0.000000 0.000000 0.000000 
0.000000 0.000000 0.000000 0.000000 0.000000 0.000000 
0.000000 0.000000 0.000000 0.000000 0.000000 -0.013524 
-0.011423 -0.010822 -0.011761 -0.014460 -0.019194 -0.026332 
-0.036841 -0.051878 -0.073123 -0.103019 -0.136813 -0.178324 
-0.230371 -0.295043 -0.374494 -0.466712 -0.560241 -0.657494 
-0.751410 -0.832897 -0.892105 -0.909158 -0.887814 -0.835259 
-0.758152 -0.665432 -0.565188 -0.463216 -0.373944 -0.299548 
-0.240139 -0.194531 -0.164079 -0.148051 -0.142612 -0.146709 
-0.160157 0.000000 0.000000 -0.011055 -0.008615 -0.007576 
-0.007956 -0.009926 -0.013720 -0.019670 -0.028551 -0.041299 
-0.059273 -0.084434 -0.112961 -0.147971 -0.191797 -0.246216 
-0.313096 -0.390514 -0.468061 -0.548591 -0.626433 -0.694300 
-0.744251 -0.757833 -0.738772 -0.693745 -0.628222 -0.549569 
-0.464375 -0.377355 -0.301746 -0.239468 -0.190691 -0.154481 
-0.131248 -0.119888 -0.117749 -0.124106 -0.138945 0.000000 
0.000000 -0.009270 -0.006406 -0.004872 -0.004667 -0.005908 
-0.008789 -0.013597 -0.020908 -0.031466 -0.046356 -0.067151 
-0.090851 -0.119961 -0.156394 -0.201643 -0.257296 -0.321597 
-0.385397 -0.451563 -0.515541 -0.571492 -0.613033 -0.623544 
-0.606557 -0.568137 -0.512797 -0.446600 -0.374862 -0.301185 
-0.237641 -0.185898 -0.146186 -0.117821 -0.100725 -0.093641 
-0.094778 -0.103679 -0.120454 0.000000 0.000000 -0.008229 
-0.004858 -0.002779 -0.001965 -0.002480 -0.004469 -0.008145 
-0.013908 -0.022329 -0.034261 -0.050952 -0.070170 -0.093860 
-0.123567 -0.160530 -0.206070 -0.258662 -0.310530 -0.364256 
-0.416189 -0.461666 -0.495582 -0.503424 -0.488403 -0.455892 
-0.409622 -0.354573 -0.294998 -0.233516 -0.180881 -0.138512 
-0.106685 -0.084960 -0.073065 -0.069840 -0.074185 -0.085879 
-0.105135 0.000000 0.000000 -0.007996 -0.004034 -0.001357 
0.000093 0.000310 -0.000783 -0.003309 -0.007512 -0.013811 
-0.022852 -0.035609 -0.050606 -0.069253 -0.092758 -0.122135 
-0.158460 -0.200489 -0.241869 -0.284689 -0.326040 -0.362225 
-0.389201 -0.394752 -0.381660 -0.354544 -0.316482 -0.271540 
-0.223108 -0.173052 -0.130543 -0.096750 -0.071982 -0.056029 
-0.048590 -0.048854 -0.056345 -0.071077 -0.093366 0.000000 
0.000000 -0.008709 -0.004018 -0.000654 0.001502 0.002521 
0.002410 0.001135 -0.001419 -0.005532 -0.011663 -0.020529 
-0.031422 -0.045172 -0.062656 -0.084669 -0.112058 -0.143935 
-0.175492 -0.208162 -0.239700 -0.267261 -0.287737 -0.291453 
-0.280582 -0.258830 -0.228656 -0.193285 -0.155400 -0.116481 
-0.083810 -0.058356 -0.040460 -0.030103 -0.026984 -0.030759 
-0.041537 -0.059616 -0.085545 0.000000 0.000000 -0.010417 
-0.004876 -0.000739 0.002218 0.004160 0.005172 0.005294 
0.004521 0.002703 -0.000441 -0.005373 -0.012170 -0.021021 
-0.032462 -0.047069 -0.065469 -0.087230 -0.109224 -0.132093 
-0.154216 -0.173538 -0.187805 -0.190171 -0.181971 -0.165801 
-0.143480 -0.117422 -0.089727 -0.061923 -0.039102 -0.022107 
-0.011319 -0.006875 -0.008436 -0.016030 -0.030271 -0.051798 
-0.081554 0.000000 0.000000 -0.013104 -0.006643 -0.001652 
0.002195 0.005157 0.007389 0.008998 0.010089 0.010639 
0.010537 0.009561 0.006817 0.002772 -0.002775 -0.010202 
-0.019934 -0.032032 -0.045083 -0.058817 -0.072177 -0.083808 
-0.092224 -0.093563 -0.088201 -0.077544 -0.062815 -0.045679 
-0.027776 -0.010995 0.002054 0.010655 0.014379 0.012935 
0.006652 -0.004837 -0.022610 -0.047661 -0.081350 0.000000 
0.000000 -0.016822 -0.009336 -0.003382 0.001472 0.005574 
0.009140 0.012335 0.015387 0.018395 0.021418 0.024463 
0.025781 0.026524 0.026818 0.026476 0.025264 0.022582 
0.018089 0.013064 0.008045 0.003737 0.000920 0.000304 
0.002596 0.007673 0.014888 0.023286 0.031595 0.037284 
0.040508 0.040661 0.037260 0.029858 0.018713 0.003150 
-0.018339 -0.047111 -0.084974 0.000000 0.000000 -0.021580 
-0.012935 -0.005883 0.000111 0.005486 0.010504 0.015393 
0.020513 0.026086 0.032339 0.039509 0.044950 0.050527 
0.056700 0.063468 0.070780 0.077455 0.081334 0.084802 
0.087895 0.090701 0.093324 0.093140 0.092072 0.091383 
0.091003 0.090672 0.089412 0.083805 0.077038 0.068597 
0.057933 0.044428 0.028218 0.008330 -0.017140 -0.049931 
-0.092325 0.000000 0.000000 -0.027332 -0.017374 -0.009082 
-0.001810 0.004970 0.011562 0.018256 0.025557 0.033815 
0.043426 0.054863 0.064528 0.075045 0.087215 0.101222 
0.117198 0.133335 0.145577 0.157497 0.168642 0.178484 
0.186466 0.186429 0.181659 0.174916 0.166727 0.157525 
0.146576 0.129357 0.112347 0.095098 0.076976 0.057177 
0.035660 0.011161 -0.018602 -0.055771 -0.103133 0.000000 
0.000000 -0.032807 -0.021708 -0.012359 -0.004051 0.003800 
0.011528 0.019481 0.028266 0.038318 0.050137 0.064331 
0.076652 0.090227 0.106066 0.124451 0.145605 0.167295 
0.184287 0.200964 0.216591 0.230311 0.241207 0.240940 
0.233749 0.223350 0.210607 0.196334 0.179857 0.155785 
0.132743 0.110289 0.087705 0.064057 0.039126 0.011477 
-0.021375 -0.061821 -0.112963 0.000000 0.000000 -0.038486 
-0.026238 -0.015828 -0.006492 0.002403 0.011231 0.020400 
0.030604 0.042354 0.056249 0.073017 0.087791 0.104177 
0.123376 0.145758 0.171625 0.198333 0.219562 0.240454 
0.260027 0.277124 0.290511 0.289837 0.280270 0.266435 
0.249507 0.230639 0.209185 0.178888 0.150389 0.123226 
0.096592 0.069420 0.041311 0.010664 -0.025187 -0.068861 
-0.123743 0.000000 0.000000 -0.044399 -0.030968 -0.019461 
-0.009063 0.000910 0.010878 0.021317 0.032996 0.046506 
0.062544 0.081968 0.099269 0.118553 0.141220 0.167732 
0.198470 0.230365 0.255962 0.281187 0.304798 0.325321 
0.341193 0.339967 0.327806 0.310297 0.288954 0.265282 
0.238666 0.201936 0.167820 0.135824 0.105036 0.074249 
0.042876 0.009134 -0.029826 -0.076857 -0.135623 0.000000 
0.000000 -0.050385 -0.035763 -0.023145 -0.011668 -0.000600 
0.010537 0.022286 0.035482 0.050797 0.069034 0.091180 
0.111076 0.133342 0.159585 0.190361 0.226135 0.263399 
0.293516 0.323217 0.350980 0.374999 0.393361 0.391447 
0.376478 0.355057 0.329061 0.300371 0.268399 0.225045 
0.185170 0.148236 0.113215 0.078747 0.044051 0.007159 
-0.034969 -0.085412 -0.148112 0.000000 0.000000 -0.056268 
-0.040478 -0.026758 -0.014203 -0.002039 0.010278 0.023361 
0.038098 0.055248 0.075717 0.100629 0.123179 0.148506 
0.178426 0.213596 0.254569 0.297386 0.332189 0.366525 
0.398573 0.426170 0.447037 0.444313 0.426333 0.400769 
0.369887 0.335962 0.298447 0.248301 0.202551 0.160600 
0.121292 0.083108 0.045065 0.005011 -0.040282 -0.094115 
-0.160686 0.000000 0.000000 -0.061172 -0.044437 -0.029814 
-0.016376 -0.003326 0.009937 0.024076 0.040007 0.058549 
0.080688 0.107645 0.132157 0.159745 0.192378 0.230781 
0.275565 0.322414 0.360558 0.398146 0.433125 0.463067 
0.485425 0.481733 0.461224 0.432395 0.397813 0.360047 
0.318566 0.263652 0.213846 0.168474 0.126262 0.085557 
0.045187 0.002860 -0.044784 -0.101234 -0.170916 0.000000 
0.000000 -0.063852 -0.046682 -0.031637 -0.017811 -0.004414 
0.009175 0.023626 0.039826 0.058594 0.080917 0.108011 
0.132618 0.160292 0.192993 0.231424 0.276157 0.322798 
0.360523 0.397514 0.431705 0.460673 0.481912 0.477100 
0.455708 0.426313 0.391516 0.353861 0.312774 0.258533 
0.209479 0.164846 0.123296 0.083124 0.043023 0.000677 
-0.047276 -0.104438 -0.175401 0.000000 0.000000 -0.065960 
-0.048464 -0.033087 -0.018945 -0.005263 0.008592 0.023290 
0.039690 0.058611 0.081035 0.108175 0.132820 0.160521 
0.193222 0.231601 0.276192 0.322539 0.359801 0.396152 
0.429511 0.457463 0.477539 0.471637 0.449421 0.419518 
0.384554 0.347050 0.306404 0.252966 0.204769 0.160963 
0.120152 0.080596 0.040866 -0.001355 -0.049412 -0.106975 
-0.178744 0.000000 0.000000 -0.067500 -0.049788 -0.034166 
-0.019781 -0.005873 0.008189 0.023068 0.039599 0.058600 
0.081046 0.108142 0.132769 0.160439 0.193069 0.231316 
0.275673 0.321643 0.358409 0.394088 0.426582 0.453483 
0.472361 0.465400 0.442415 0.412052 0.376959 0.339630 
0.299457 0.246936 0.199685 0.156778 0.116774 0.077906 
0.038644 -0.003314 -0.051266 -0.108914 -0.180996 0.000000 
0.000000 -0.068487 -0.050665 -0.034885 -0.020327 -0.006251 
0.007962 0.022955 0.039551 0.058561 0.080953 0.107921 
0.132472 0.160052 0.192543 0.230578 0.274610 0.320124 
0.356370 0.391354 0.422960 0.448786 0.466436 0.458445 
0.434739 0.403953 0.368755 0.331615 0.291933 0.240421 
0.194189 0.152240 0.113099 0.074981 0.036276 -0.005286 
-0.052930 -0.110345 -0.182243 0.000000 0.000000 -0.068944 
-0.051113 -0.035259 -0.020595 -0.006405 0.007904 0.022944 
0.039540 0.058492 0.080758 0.107519 0.131940 0.159370 
0.191654 0.229397 0.273015 0.318000 0.353708 0.387985 
0.418691 0.443423 0.459824 0.450829 0.426441 0.395257 
0.359966 0.323016 0.283829 0.233400 0.188242 0.147299 
0.109063 0.071748 0.033680 -0.007359 -0.054501 -0.111374 
-0.182598 0.000000 0.000000 -0.067653 -0.050069 -0.034512 
-0.020200 -0.006434 0.007335 0.021662 0.037331 0.055074 
0.075752 0.100414 0.122745 0.147655 0.176777 0.210595 
0.249393 0.289018 0.319939 0.349245 0.375035 0.395221 
0.407812 0.398012 0.375075 0.346723 0.315344 0.283011 
0.249086 0.205465 0.166327 0.130557 0.096694 0.063058 
0.028028 -0.010425 -0.055188 -0.109675 -0.178241 0.000000 
0.000000 -0.065811 -0.048563 -0.033436 -0.019648 -0.006518 
0.006454 0.019754 0.034118 0.050182 0.068676 0.090465 
0.109894 0.131294 0.156021 0.184384 0.216502 0.248706 
0.272986 0.295445 0.314542 0.328655 0.336325 0.325821 
0.305280 0.281173 0.255431 0.229592 0.202905 0.168393 
0.137224 0.108236 0.080059 0.051173 0.020078 -0.015010 
-0.056668 -0.108027 -0.173100 0.000000 0.000000 -0.064044 
-0.047143 -0.032451 -0.019196 -0.006714 0.005443 0.017701 
0.030745 0.045113 0.061406 0.080306 0.096804 0.114656 
0.134934 0.157769 0.183104 0.207749 0.225209 0.240612 
0.252799 0.260643 0.263251 0.252026 0.233943 0.214182 
0.194186 0.174936 0.155545 0.130127 0.106871 0.084582 
0.061992 0.037756 0.010519 -0.021245 -0.059797 -0.107964 
-0.169396 0.000000 0.000000 -0.062417 -0.045871 -0.031619 
-0.018902 -0.007079 0.004251 0.015462 0.027182 0.039854 
0.053946 0.069959 0.083516 0.097803 0.113603 0.130863 
0.149340 0.166302 0.176749 0.184865 0.189890 0.191227 
0.188593 0.176575 0.160958 0.145603 0.131443 0.118868 
0.106827 0.090473 0.075058 0.059372 0.042261 0.022568 
-0.000895 -0.029384 -0.064836 -0.109762 -0.167429 0.000000 
0.000000 -0.060988 -0.044804 -0.030992 -0.018817 -0.007664 
0.002832 0.013000 0.023403 0.034390 0.046296 0.059442 
0.070060 0.080776 0.092083 0.103731 0.115281 0.124432 
0.127642 0.128196 0.125755 0.120294 0.112194 0.099253 
0.086066 0.075158 0.066919 0.061119 0.056505 0.049192 
0.041558 0.032387 0.020658 0.005411 -0.014347 -0.039594 
-0.071941 -0.113569 -0.167348 0.000000 0.000000 -0.059546 
-0.043812 -0.030517 -0.018963 -0.008575 0.000979 0.009993 
0.018943 0.028074 0.037578 0.047576 0.054942 0.061703 
0.068030 0.073447 0.077283 0.077662 0.072598 0.064459 
0.053422 0.040160 0.025870 0.011894 0.001499 -0.004289 
-0.005742 -0.003832 -0.000086 0.002575 0.003475 0.001425 
-0.004432 -0.014827 -0.030526 -0.052218 -0.081189 -0.119278 
-0.168959 0.000000 0.000000 -0.057030 -0.042265 -0.029945 
-0.019472 -0.010360 -0.002336 0.004833 0.011471 0.017661 
0.023378 0.028440 0.030632 0.031119 0.029582 0.025180 
0.016853 0.003306 -0.015119 -0.037294 -0.062107 -0.087615 
-0.111176 -0.126039 -0.131082 -0.127765 -0.117587 -0.102807 
-0.085471 -0.067189 -0.053028 -0.044030 -0.040771 -0.043648 
-0.053106 -0.069505 -0.093791 -0.127452 -0.172564 0.000000 
0.000000 -0.055235 -0.041455 -0.030109 -0.020694 -0.012812 
-0.006253 -0.000852 0.003557 0.006899 0.008927 0.009157 
0.006174 0.000337 -0.009171 -0.023581 -0.044375 -0.072341 
-0.104875 -0.141955 -0.181450 -0.220012 -0.253391 -0.269476 
-0.269184 -0.256446 -0.234097 -0.205806 -0.174266 -0.140017 
-0.112447 -0.092413 -0.080164 -0.075735 -0.079184 -0.090491 
-0.110255 -0.139593 -0.180161 0.000000 0.000000 -0.054169 
-0.041400 -0.031030 -0.022652 -0.015955 -0.010793 -0.007087 
-0.004822 -0.004237 -0.005798 -0.010299 -0.018477 -0.030723 
-0.048356 -0.073029 -0.106687 -0.149695 -0.197265 -0.250330 
-0.305626 -0.358232 -0.402084 -0.419750 -0.414069 -0.391439 
-0.356175 -0.313520 -0.266961 -0.216260 -0.175033 -0.143893 
-0.122713 -0.111115 -0.108702 -0.115025 -0.130337 -0.155363 
-0.191330 0.000000 0.000000 -0.053779 -0.042060 -0.032682 
-0.025328 -0.019777 -0.015953 -0.013874 -0.013675 -0.015757 
-0.020811 -0.029947 -0.043366 -0.062139 -0.088096 -0.123354 
-0.170360 -0.229163 -0.292899 -0.363257 -0.435709 -0.503542 
-0.558616 -0.578197 -0.566942 -0.533738 -0.484568 -0.426446 
-0.363845 -0.296094 -0.240871 -0.198480 -0.168350 -0.149645 
-0.141413 -0.142751 -0.153577 -0.174210 -0.205439 0.000000 
0.000000 -0.053963 -0.043347 -0.034990 -0.028663 -0.024233 
-0.021700 -0.021188 -0.022983 -0.027650 -0.036107 -0.049788 
-0.068512 -0.093961 -0.128486 -0.174706 -0.235623 -0.311089 
-0.392320 -0.481514 -0.572710 -0.657129 -0.724237 -0.745985 
-0.728779 -0.684056 -0.619706 -0.544757 -0.464898 -0.379417 
-0.309795 -0.255944 -0.216778 -0.190940 -0.176821 -0.173067 
-0.179282 -0.195364 -0.221666 0.000000 0.000000 -0.054541 
-0.045089 -0.037818 -0.032549 -0.029221 -0.027910 -0.028862 
-0.032521 -0.039622 -0.051315 -0.069353 -0.093328 -0.125419 
-0.168474 -0.225619 -0.300421 -0.392699 -0.492093 -0.601029 
-0.712030 -0.814075 -0.893997 -0.918607 -0.895819 -0.839434 
-0.759309 -0.666618 -0.568468 -0.464643 -0.380223 -0.314778 
-0.266657 -0.233887 -0.214021 -0.205216 -0.206697 -0.218028 
-0.239422 0.000000 0.000000 -0.055579 -0.047146 -0.040878 
-0.036627 -0.034387 -0.034305 -0.036696 -0.042157 -0.051598 
-0.066403 -0.088641 -0.117840 -0.156591 -0.208223 -0.276382 
-0.365217 -0.474689 -0.593235 -0.723139 -0.855261 -0.976062 
-1.069418 -1.097142 -1.068583 -0.999851 -0.902958 -0.791430 
-0.674020 -0.551300 -0.451579 -0.374092 -0.316578 -0.276365 
-0.250226 -0.236405 -0.233734 -0.241497 -0.259966 0.000000 
0.000000 -0.056951 -0.049366 -0.043984 -0.040688 -0.039529 
-0.040723 -0.044591 -0.051865 -0.063630 -0.081501 -0.107876 
-0.142378 -0.187961 -0.248449 -0.328042 -0.431494 -0.559089 
-0.698460 -0.851247 -1.006353 -1.147273 -1.254427 -1.284741 
-1.249175 -1.166368 -1.050896 -0.918978 -0.781227 -0.638995 
-0.523387 -0.433210 -0.365527 -0.316946 -0.283740 -0.264904 
-0.258804 -0.264389 -0.281938 0.000000 0.000000 -0.058462 
-0.051588 -0.046988 -0.044582 -0.044482 -0.046981 -0.052364 
-0.061468 -0.075546 -0.096452 -0.126922 -0.166808 -0.219391 
-0.288996 -0.380395 -0.498946 -0.645448 -0.807277 -0.984797 
-1.164621 -1.326758 -1.447641 -1.479628 -1.435549 -1.336798 
-1.200952 -1.047247 -0.888292 -0.725953 -0.593904 -0.490419 
-0.411837 -0.354039 -0.313239 -0.289602 -0.280785 -0.285338 
-0.303464 0.000000 0.000000 -0.059954 -0.053678 -0.049763 
-0.048170 -0.049078 -0.052881 -0.059808 -0.070751 -0.087134 
-0.111050 -0.145588 -0.190939 -0.250668 -0.329608 -0.433099 
-0.567061 -0.733004 -0.918765 -1.122657 -1.328618 -1.512609 
-1.646527 -1.678805 -1.624476 -1.507885 -1.350049 -1.173492 
-0.992825 -0.809895 -0.660989 -0.543735 -0.453702 -0.386055 
-0.337522 -0.309546 -0.298693 -0.303050 -0.322648 0.000000 
0.000000 0.000000 0.000000 0.000000 0.000000 0.000000 
0.000000 0.000000 0.000000 0.000000 0.000000 0.000000 
0.000000 0.000000 0.000000 0.000000 0.000000 0.000000 
0.000000 0.000000 0.000000 0.000000 0.000000 0.000000 
0.000000 0.000000 0.000000 0.000000 0.000000 0.000000 
0.000000 0.000000 0.000000 0.000000 0.000000 0.000000 
0.000000 0.000000 0.000000 0.000000 
