# vtk DataFile Version 1.0
vtk output
ASCII
DATASET POLYDATA
POINTS 1600 float
-0.946259 0.065488 -0.992738 -0.862625 0.101954 -0.992973 
-0.779232 0.138178 -0.993204 -0.696417 0.173870 -0.993422 
-0.614515 0.208740 -0.993612 -0.533859 0.242499 -0.993765 
-0.454783 0.274858 -0.993867 -0.377568 0.305557 -0.993917 
-0.302427 0.334373 -0.993923 -0.229571 0.361084 -0.993894 
-0.159212 0.385470 -0.993840 -0.091559 0.407310 -0.993770 
-0.026796 0.426403 -0.993691 0.035077 0.442691 -0.993612 
0.094128 0.456164 -0.993536 0.150423 0.466815 -0.993469 
0.204031 0.474636 -0.993417 0.255018 0.479619 -0.993384 
0.303482 0.481781 -0.993372 0.349572 0.481183 -0.993379 
0.393439 0.477890 -0.993398 0.435238 0.471967 -0.993426 
0.475122 0.463478 -0.993459 0.513245 0.452493 -0.993493 
0.549765 0.439102 -0.993526 0.584843 0.423414 -0.993561 
0.618640 0.405535 -0.993598 0.651318 0.385571 -0.993638 
0.683036 0.363631 -0.993683 0.713947 0.339838 -0.993736 
0.744184 0.314357 -0.993804 0.773872 0.287361 -0.993893 
0.803140 0.259024 -0.994013 0.832114 0.229519 -0.994169 
0.860919 0.199017 -0.994371 0.889627 0.167682 -0.994619 
0.918265 0.135664 -0.994915 0.946859 0.103116 -0.995257 
0.975435 0.070192 -0.995644 1.004020 0.037042 -0.996075 
-0.945033 0.079855 -0.941075 -0.863076 0.114891 -0.941352 
-0.781306 0.149793 -0.941616 -0.700045 0.184271 -0.941858 
-0.619616 0.218035 -0.942069 -0.540340 0.250797 -0.942241 
-0.462538 0.282268 -0.942365 -0.386477 0.312190 -0.942439 
-0.312358 0.340344 -0.942472 -0.240379 0.366511 -0.942472 
-0.170738 0.390472 -0.942447 -0.103632 0.412009 -0.942405 
-0.039234 0.430923 -0.942354 0.022446 0.447143 -0.942300 
0.081457 0.460645 -0.942247 0.137851 0.471405 -0.942199 
0.191677 0.479398 -0.942161 0.242986 0.484601 -0.942136 
0.291860 0.487019 -0.942127 0.338436 0.486706 -0.942131 
0.382854 0.483720 -0.942145 0.425258 0.478122 -0.942168 
0.465788 0.469971 -0.942196 0.504588 0.459328 -0.942226 
0.541808 0.446288 -0.942259 0.577601 0.430960 -0.942294 
0.612122 0.413456 -0.942331 0.645524 0.393885 -0.942372 
0.677962 0.372359 -0.942415 0.709581 0.349006 -0.942464 
0.740507 0.323993 -0.942521 0.770859 0.297500 -0.942592 
0.800761 0.269701 -0.942682 0.830333 0.240774 -0.942795 
0.859693 0.210896 -0.942937 0.888916 0.180239 -0.943105 
0.918041 0.148972 -0.943293 0.947102 0.117266 -0.943494 
0.976138 0.085290 -0.943702 1.005185 0.053213 -0.943909 
-0.943926 0.094081 -0.889408 -0.863459 0.127857 -0.889737 
-0.783136 0.161594 -0.890041 -0.703265 0.195003 -0.890314 
-0.624155 0.227799 -0.890550 -0.546115 0.259695 -0.890743 
-0.469453 0.290404 -0.890889 -0.394423 0.319672 -0.890986 
-0.321216 0.347276 -0.891043 -0.250021 0.372998 -0.891068 
-0.181025 0.396621 -0.891068 -0.114415 0.417925 -0.891050 
-0.050356 0.436711 -0.891023 0.011133 0.452897 -0.890991 
0.070090 0.466446 -0.890958 0.126550 0.477319 -0.890926 
0.180551 0.485480 -0.890900 0.232129 0.490891 -0.890884 
0.281355 0.493546 -0.890878 0.328353 0.493493 -0.890882 
0.373255 0.490786 -0.890895 0.416193 0.485480 -0.890914 
0.457297 0.477627 -0.890938 0.496701 0.467286 -0.890967 
0.534546 0.454550 -0.890999 0.570980 0.439532 -0.891033 
0.606150 0.422346 -0.891070 0.640205 0.403106 -0.891109 
0.673291 0.381926 -0.891149 0.705548 0.358937 -0.891190 
0.737097 0.334314 -0.891235 0.768054 0.308239 -0.891286 
0.798535 0.280895 -0.891344 0.828658 0.252464 -0.891413 
0.858536 0.223129 -0.891493 0.888248 0.193071 -0.891581 
0.917837 0.162474 -0.891665 0.947350 0.131520 -0.891735 
0.976831 0.100391 -0.891780 1.006326 0.069270 -0.891790 
-0.942950 0.108098 -0.837757 -0.863799 0.140768 -0.838145 
-0.784758 0.173484 -0.838494 -0.706124 0.205962 -0.838802 
-0.628190 0.237920 -0.839065 -0.551253 0.269074 -0.839281 
-0.475607 0.299139 -0.839448 -0.401495 0.327862 -0.839567 
-0.329100 0.355020 -0.839645 -0.258603 0.380391 -0.839691 
-0.190184 0.403755 -0.839712 -0.124023 0.424892 -0.839715 
-0.060277 0.443598 -0.839708 0.001027 0.459782 -0.839694 
0.059917 0.473396 -0.839678 0.116417 0.484390 -0.839661 
0.170556 0.492715 -0.839647 0.222358 0.498324 -0.839638 
0.271883 0.501200 -0.839637 0.319248 0.501386 -0.839643 
0.364573 0.498932 -0.839655 0.407980 0.493886 -0.839673 
0.449593 0.486297 -0.839696 0.489533 0.476218 -0.839723 
0.527935 0.463743 -0.839754 0.564941 0.448986 -0.839788 
0.600694 0.432066 -0.839823 0.635333 0.413099 -0.839858 
0.669001 0.392201 -0.839893 0.701833 0.369507 -0.839926 
0.733945 0.345198 -0.839957 0.765450 0.319465 -0.839986 
0.796460 0.292497 -0.840012 0.827091 0.264483 -0.840036 
0.857451 0.235612 -0.840056 0.887622 0.206077 -0.840065 
0.917654 0.176069 -0.840051 0.947599 0.145781 -0.840000 
0.977509 0.115406 -0.839900 1.007434 0.085136 -0.839737 
-0.942113 0.121839 -0.786141 -0.864118 0.153540 -0.786592 
-0.786210 0.185368 -0.786989 -0.708670 0.217043 -0.787334 
-0.631781 0.248285 -0.787625 -0.555824 0.278811 -0.787864 
-0.481079 0.308343 -0.788051 -0.407781 0.336625 -0.788189 
-0.336107 0.363431 -0.788286 -0.266231 0.388535 -0.788350 
-0.198327 0.411714 -0.788388 -0.132570 0.432742 -0.788408 
-0.069113 0.451413 -0.788417 -0.007986 0.467627 -0.788420 
0.050829 0.481324 -0.788418 0.107350 0.492447 -0.788414 
0.161595 0.500937 -0.788410 0.213583 0.506736 -0.788410 
0.263363 0.509820 -0.788414 0.311043 0.510228 -0.788423 
0.356737 0.508002 -0.788436 0.400558 0.503189 -0.788454 
0.442618 0.495831 -0.788477 0.483033 0.485977 -0.788504 
0.521931 0.473721 -0.788534 0.559448 0.459181 -0.788566 
0.595720 0.442477 -0.788598 0.630884 0.423728 -0.788629 
0.665074 0.403052 -0.788658 0.698423 0.380588 -0.788681 
0.731042 0.356525 -0.788698 0.763042 0.331062 -0.788705 
0.794535 0.304396 -0.788699 0.825631 0.276723 -0.788679 
0.856440 0.248243 -0.788641 0.887040 0.219155 -0.788577 
0.917491 0.189658 -0.788471 0.947847 0.159955 -0.788311 
0.978165 0.130246 -0.788082 1.008502 0.100731 -0.787769 
-0.941426 0.135235 -0.734579 -0.864442 0.166090 -0.735095 
-0.787527 0.197152 -0.735541 -0.710952 0.228141 -0.735922 
-0.634985 0.258779 -0.736240 -0.559894 0.288787 -0.736500 
-0.485948 0.317887 -0.736705 -0.413370 0.345823 -0.736860 
-0.342335 0.372362 -0.736973 -0.273010 0.397276 -0.737052 
-0.205566 0.420336 -0.737105 -0.140172 0.441310 -0.737139 
-0.076978 0.459987 -0.737162 -0.016019 0.476260 -0.737178 
0.042719 0.490061 -0.737188 0.099245 0.501324 -0.737195 
0.153573 0.509981 -0.737202 0.205713 0.515965 -0.737209 
0.255710 0.519247 -0.737219 0.303664 0.519859 -0.737232 
0.349680 0.517841 -0.737248 0.393863 0.513234 -0.737267 
0.436318 0.506076 -0.737290 0.477154 0.496413 -0.737317 
0.516492 0.484339 -0.737347 0.554463 0.469974 -0.737377 
0.591199 0.453440 -0.737406 0.626831 0.434857 -0.737432 
0.661490 0.414348 -0.737453 0.695302 0.392055 -0.737467 
0.728378 0.368176 -0.737468 0.760827 0.342915 -0.737454 
0.792759 0.316482 -0.737418 0.824281 0.289080 -0.737357 
0.855502 0.260918 -0.737266 0.886504 0.232202 -0.737134 
0.917347 0.203142 -0.736947 0.948091 0.173945 -0.736689 
0.978795 0.144820 -0.736347 1.009521 0.115976 -0.735904 
-0.940898 0.148217 -0.683091 -0.864793 0.178335 -0.683670 
-0.788747 0.208739 -0.684163 -0.713017 0.239150 -0.684578 
-0.637860 0.269290 -0.684921 -0.563533 0.298880 -0.685199 
-0.490291 0.327642 -0.685419 -0.418351 0.355316 -0.685588 
-0.347880 0.381667 -0.685714 -0.279044 0.406460 -0.685806 
-0.212010 0.429458 -0.685871 -0.146942 0.450428 -0.685917 
-0.083988 0.469151 -0.685952 -0.023184 0.485512 -0.685978 
0.035477 0.499437 -0.685999 0.092000 0.510851 -0.686016 
0.146392 0.519679 -0.686031 0.198661 0.525847 -0.686045 
0.248844 0.529318 -0.686061 0.297035 0.530121 -0.686079 
0.343331 0.528292 -0.686098 0.387832 0.523868 -0.686120 
0.430636 0.516883 -0.686145 0.471844 0.507380 -0.686172 
0.511573 0.495452 -0.686201 0.549949 0.481222 -0.686230 
0.587098 0.464814 -0.686255 0.623149 0.446352 -0.686276 
0.658228 0.425960 -0.686289 0.692456 0.403783 -0.686292 
0.725944 0.380028 -0.686280 0.758799 0.354910 -0.686245 
0.791129 0.328645 -0.686182 0.823041 0.301447 -0.686084 
0.854642 0.273533 -0.685946 0.886014 0.245118 -0.685755 
0.917222 0.216420 -0.685497 0.948327 0.187655 -0.685156 
0.979393 0.159040 -0.684716 1.010483 0.130791 -0.684161 
-0.940529 0.160711 -0.631695 -0.865185 0.190189 -0.632332 
-0.789894 0.220035 -0.632868 -0.714902 0.249967 -0.633312 
-0.640455 0.279706 -0.633675 -0.566798 0.308970 -0.633967 
-0.494175 0.337479 -0.634199 -0.422796 0.364970 -0.634379 
-0.352824 0.391202 -0.634516 -0.284422 0.415933 -0.634618 
-0.217752 0.438924 -0.634692 -0.152976 0.459933 -0.634748 
-0.090238 0.478736 -0.634792 -0.029577 0.495213 -0.634828 
0.029010 0.509281 -0.634858 0.085524 0.520858 -0.634883 
0.139969 0.529862 -0.634905 0.192346 0.536213 -0.634927 
0.242689 0.539867 -0.634948 0.291085 0.540850 -0.634971 
0.337627 0.539194 -0.634995 0.382408 0.534931 -0.635020 
0.425519 0.528095 -0.635047 0.467057 0.518722 -0.635075 
0.507132 0.506908 -0.635104 0.545868 0.492777 -0.635130 
0.583387 0.476457 -0.635152 0.619812 0.458072 -0.635167 
0.655267 0.437750 -0.635172 0.689869 0.415641 -0.635166 
0.723728 0.391958 -0.635139 0.756949 0.366927 -0.635086 
0.789640 0.340771 -0.634999 0.821907 0.313714 -0.634870 
0.853855 0.285982 -0.634692 0.885569 0.257800 -0.634453 
0.917114 0.229393 -0.634136 0.948554 0.200989 -0.633725 
0.979955 0.172813 -0.633203 1.011382 0.145091 -0.632555 
-0.940307 0.172634 -0.580409 -0.865618 0.201566 -0.581095 
-0.790981 0.230947 -0.581664 -0.716630 0.260492 -0.582131 
-0.642801 0.289918 -0.582508 -0.569729 0.318939 -0.582809 
-0.497649 0.347271 -0.583048 -0.426763 0.374649 -0.583236 
-0.357231 0.400823 -0.583381 -0.289212 0.425548 -0.583490 
-0.222864 0.448577 -0.583573 -0.158348 0.469664 -0.583636 
-0.095804 0.488579 -0.583688 -0.035273 0.505194 -0.583731 
0.023244 0.519422 -0.583768 0.079745 0.531172 -0.583800 
0.134231 0.540357 -0.583829 0.186699 0.546890 -0.583857 
0.237179 0.550721 -0.583885 0.285754 0.551872 -0.583913 
0.332510 0.550374 -0.583942 0.377536 0.546254 -0.583970 
[...]
POINT_DATA 1600
SCALARS scalars float
LOOKUP_TABLE default
0.000000 0.000000 0.000000 0.000000 0.000000 0.000000 
0.000000 0.000000 0.000000 0.000000 0.000000 0.000000 
0.000000 0.000000 0.000000 0.000000 0.000000 0.000000 
0.000000 0.000000 0.000000 0.000000 0.000000 0.000000 
0.000000 0.000000 0.000000 0.000000 0.000000 0.000000 
0.000000 0.000000 0.000000 0.000000 0.000000 0.000000 
0.000000 0.000000 0.000000 0.000000 0.000000 0.013578 
0.013188 0.012809 0.011871 0.009685 0.006764 0.002868 
-0.005674 -0.021533 -0.048310 -0.090994 -0.130535 -0.181380 
-0.249818 -0.338987 -0.452077 -0.582813 -0.707053 -0.836883 
-0.964965 -1.081980 -1.177733 -1.217686 -1.208359 -1.160701 
-1.080428 -0.975958 -0.853254 -0.708862 -0.571414 -0.442649 
-0.322622 -0.210252 -0.125722 -0.059972 0.004681 0.068811 
0.132981 0.000000 0.000000 -0.002212 -0.004310 -0.006078 
-0.008233 -0.011623 -0.015939 -0.021554 -0.031999 -0.049781 
-0.078239 -0.121962 -0.162792 -0.214557 -0.283237 -0.371854 
-0.483546 -0.611473 -0.730884 -0.856006 -0.980279 -1.095307 
-1.191762 -1.232228 -1.224746 -1.181172 -1.106500 -1.008268 
-0.891284 -0.749574 -0.613475 -0.484983 -0.364434 -0.251012 
-0.160361 -0.085765 -0.013056 0.058713 0.130431 0.000000 
0.000000 -0.018159 -0.022155 -0.025421 -0.028859 -0.033509 
-0.039416 -0.047140 -0.059905 -0.080052 -0.110687 -0.156053 
-0.198413 -0.251269 -0.320385 -0.408684 -0.519244 -0.644788 
-0.760214 -0.881400 -1.002411 -1.115610 -1.212393 -1.252968 
-1.246673 -1.206163 -1.135863 -1.042593 -0.929999 -0.789052 
-0.652743 -0.523281 -0.401239 -0.286026 -0.190356 -0.108954 
-0.029834 0.048308 0.126698 0.000000 0.000000 -0.034069 
-0.040200 -0.045127 -0.049970 -0.055985 -0.063666 -0.073790 
-0.089180 -0.112015 -0.145188 -0.192638 -0.236703 -0.290781 
-0.360504 -0.448713 -0.558428 -0.682029 -0.794219 -0.912169 
-1.030445 -1.142018 -1.238888 -1.279227 -1.273513 -1.235128 
-1.168061 -1.078555 -0.969124 -0.827413 -0.689663 -0.558269 
-0.434004 -0.316463 -0.216592 -0.129877 -0.045536 0.038099 
0.122613 0.000000 0.000000 -0.049716 -0.058280 -0.065095 
-0.071528 -0.079077 -0.088711 -0.101435 -0.119652 -0.145389 
-0.181341 -0.231181 -0.277090 -0.332514 -0.403019 -0.491382 
-0.600578 -0.722709 -0.832343 -0.947699 -1.063741 -1.173924 
-1.270729 -1.310516 -1.304803 -1.267660 -1.202752 -1.115866 
-1.008459 -0.864827 -0.724731 -0.590731 -0.463766 -0.343588 
-0.240052 -0.148944 -0.060069 0.028630 0.119140 0.000000 
0.000000 -0.066825 -0.077484 -0.086252 -0.094604 -0.104134 
-0.116070 -0.131538 -0.152636 -0.181281 -0.220029 -0.272361 
-0.320238 -0.377254 -0.448927 -0.537968 -0.647292 -0.768709 
-0.876602 -0.990087 -1.104430 -1.213458 -1.310030 -1.348825 
-1.342379 -1.305472 -1.241570 -1.156146 -1.049733 -0.903482 
-0.760583 -0.623674 -0.493770 -0.370696 -0.263363 -0.167694 
-0.074013 0.019993 0.116596 0.000000 0.000000 -0.086186 
-0.098256 -0.108931 -0.119572 -0.131634 -0.146275 -0.164597 
-0.188561 -0.220034 -0.261508 -0.316364 -0.366366 -0.425295 
-0.498623 -0.588983 -0.699196 -0.820737 -0.927704 -1.040016 
-1.153157 -1.261232 -1.357383 -1.394696 -1.386743 -1.349072 
-1.285071 -1.200034 -1.093729 -0.944442 -0.798505 -0.658531 
-0.525509 -0.399233 -0.287571 -0.186671 -0.087591 0.012041 
0.114589 0.000000 0.000000 -0.105606 -0.119210 -0.131964 
-0.145089 -0.159891 -0.177377 -0.198586 -0.225453 -0.259811 
-0.304098 -0.361623 -0.413903 -0.474929 -0.550153 -0.642138 
-0.753632 -0.875774 -0.982329 -1.093952 -1.206274 -1.313590 
-1.409248 -1.444795 -1.434838 -1.395696 -1.330759 -1.245220 
-1.138199 -0.985386 -0.836056 -0.692787 -0.556522 -0.427000 
-0.311030 -0.204978 -0.100600 0.004569 0.113014 0.000000 
0.000000 -0.125513 -0.140690 -0.155598 -0.171312 -0.188977 
-0.209386 -0.233492 -0.263284 -0.300568 -0.347749 -0.408079 
-0.462788 -0.526097 -0.603455 -0.697368 -0.810517 -0.933713 
-1.040338 -1.151717 -1.263568 -1.370306 -1.465409 -1.498942 
-1.486538 -1.445296 -1.378670 -1.291829 -1.183347 -1.026578 
-0.873560 -0.726823 -0.587245 -0.454493 -0.334329 -0.223316 
-0.113856 -0.003364 0.110792 0.000000 0.000000 -0.146362 
-0.163049 -0.180093 -0.198406 -0.218965 -0.242317 -0.269312 
-0.302036 -0.342280 -0.392430 -0.455702 -0.512992 -0.578773 
-0.658504 -0.754645 -0.869814 -0.994496 -1.101639 -1.213183 
-1.324879 -1.431199 -1.525684 -1.556980 -1.541733 -1.497828 
-1.428840 -1.339976 -1.229362 -1.068271 -0.911327 -0.761004 
-0.618098 -0.482187 -0.358032 -0.242367 -0.128169 -0.012714 
0.106793 0.000000 0.000000 -0.168625 -0.186654 -0.205712 
-0.226536 -0.249927 -0.276183 -0.306047 -0.341702 -0.384937 
-0.438129 -0.504474 -0.564503 -0.632948 -0.715294 -0.813960 
-0.931503 -1.058076 -1.166156 -1.278238 -1.390060 -1.496093 
-1.589891 -1.618748 -1.600305 -1.553235 -1.481284 -1.389757 
-1.276415 -1.110701 -0.949654 -0.795678 -0.649478 -0.510524 
-0.382668 -0.262778 -0.144321 -0.024429 0.099860 0.000000 
0.000000 -0.182270 -0.201079 -0.221247 -0.243455 -0.268455 
-0.296463 -0.328185 -0.365828 -0.411155 -0.466511 -0.535056 
-0.596915 -0.667120 -0.751209 -0.851580 -0.970756 -1.098594 
-1.207130 -1.319410 -1.431158 -1.536840 -1.630008 -1.656707 
-1.635549 -1.585942 -1.511800 -1.418514 -1.303505 -1.134568 
-0.970908 -0.814807 -0.666819 -0.526269 -0.396196 -0.273500 
-0.151961 -0.028491 0.100111 0.000000 0.000000 -0.195076 
-0.214575 -0.235665 -0.259004 -0.285328 -0.314845 -0.348253 
-0.387734 -0.435018 -0.492422 -0.563075 -0.626685 -0.698587 
-0.784379 -0.886449 -1.007289 -1.136478 -1.245610 -1.358236 
-1.470040 -1.575451 -1.667993 -1.692560 -1.668685 -1.616479 
-1.540037 -1.444859 -1.328085 -1.156090 -0.990031 -0.832061 
-0.682579 -0.540752 -0.408929 -0.283992 -0.159929 -0.033429 
0.098959 0.000000 0.000000 -0.208696 -0.228870 -0.250825 
-0.275208 -0.302755 -0.333709 -0.368781 -0.410084 -0.459323 
-0.518793 -0.591594 -0.657038 -0.730740 -0.818362 -0.922285 
-1.044976 -1.175742 -1.285737 -1.398950 -1.511000 -1.616249 
-1.708160 -1.730561 -1.703865 -1.648857 -1.569834 -1.472434 
-1.353580 -1.178457 -1.009974 -0.850150 -0.699235 -0.556243 
-0.422931 -0.296139 -0.170001 -0.040993 0.094575 0.000000 
0.000000 -0.223076 -0.243925 -0.266696 -0.292044 -0.320716 
-0.353028 -0.389724 -0.432815 -0.483986 -0.545511 -0.620469 
-0.687814 -0.763409 -0.852973 -0.958886 -1.083591 -1.216143 
-1.327249 -1.441279 -1.553759 -1.658953 -1.750233 -1.770450 
-1.740850 -1.682865 -1.601016 -1.501101 -1.379891 -1.201606 
-1.030693 -0.869046 -0.716767 -0.572725 -0.438168 -0.309881 
-0.182100 -0.051110 0.087003 0.000000 0.000000 -0.238112 
-0.259655 -0.283210 -0.309456 -0.339165 -0.372759 -0.411022 
-0.455849 -0.508906 -0.572448 -0.649536 -0.718835 -0.796398 
-0.887999 -0.996018 -1.122880 -1.257402 -1.369850 -1.484910 
-1.597994 -1.703239 -1.793901 -1.811934 -1.779374 -1.718273 
-1.633392 -1.530710 -1.406907 -1.225460 -1.052134 -0.888704 
-0.735135 -0.590160 -0.454575 -0.325112 -0.196094 -0.063632 
0.076390 0.000000 0.000000 -0.249015 -0.271171 -0.295317 
-0.322177 -0.352567 -0.387029 -0.426405 -0.472480 -0.526912 
-0.591948 -0.670644 -0.741483 -0.820648 -0.913955 -1.023787 
-1.152555 -1.288859 -1.402552 -1.518590 -1.632265 -1.737576 
-1.827654 -1.843644 -1.808330 -1.744340 -1.656674 -1.551495 
-1.425432 -1.241410 -1.066259 -0.901635 -0.747367 -0.602062 
-0.466099 -0.336176 -0.206713 -0.073681 0.067199 0.000000 
0.000000 -0.248608 -0.271069 -0.295335 -0.322189 -0.352499 
-0.386925 -0.426375 -0.472559 -0.527154 -0.592427 -0.671454 
-0.742694 -0.822399 -0.916402 -1.027094 -1.156875 -1.294162 
-1.408466 -1.524998 -1.638950 -1.744207 -1.833786 -1.848141 
-1.810738 -1.744710 -1.655262 -1.548701 -1.421613 -1.236518 
-1.061013 -0.896618 -0.743024 -0.598715 -0.463673 -0.334600 
-0.206054 -0.073914 0.066210 0.000000 0.000000 -0.248311 
-0.271077 -0.295463 -0.322307 -0.352525 -0.386872 -0.426318 
-0.472515 -0.527160 -0.592541 -0.671756 -0.743344 -0.823553 
-0.918220 -1.029742 -1.160519 -1.298819 -1.413854 -1.531012 
-1.645379 -1.750709 -1.839888 -1.852768 -1.813424 -1.745444 
-1.654232 -1.546250 -1.418086 -1.232054 -1.056288 -0.892190 
-0.739332 -0.596095 -0.462089 -0.334043 -0.206667 -0.075766 
0.063131 0.000000 0.000000 -0.248018 -0.271108 -0.295632 
-0.322481 -0.352611 -0.386854 -0.426221 -0.472341 -0.526932 
-0.592302 -0.671572 -0.743458 -0.824133 -0.919429 -1.031753 
-1.163508 -1.302856 -1.418768 -1.536718 -1.651669 -1.757227 
-1.846130 -1.857700 -1.816555 -1.746688 -1.653706 -1.544228 
-1.414902 -1.228026 -1.052059 -0.888301 -0.736221 -0.594110 
-0.461237 -0.334378 -0.208401 -0.079061 0.058174 0.000000 
0.000000 -0.247637 -0.271080 -0.295776 -0.322659 -0.352725 
-0.386849 -0.426071 -0.472032 -0.526471 -0.591722 -0.670931 
-0.743063 -0.824167 -0.920054 -1.033151 -1.165866 -1.306307 
-1.423271 -1.542206 -1.657942 -1.763915 -1.852687 -1.863121 
-1.820305 -1.748595 -1.653803 -1.542723 -1.412112 -1.224442 
-1.048299 -0.884896 -0.733612 -0.592662 -0.460996 -0.335456 
-0.211076 -0.083574 0.051617 0.000000 0.000000 -0.247083 
-0.270920 -0.295832 -0.322792 -0.352832 -0.386835 -0.425853 
-0.471581 -0.525783 -0.590818 -0.669861 -0.742193 -0.823685 
-0.920127 -1.033966 -1.167623 -1.309208 -1.427425 -1.547574 
-1.664327 -1.770931 -1.859742 -1.869218 -1.824851 -1.751321 
-1.654650 -1.541826 -1.409768 -1.221309 -1.044980 -0.881918 
-0.731423 -0.591642 -0.461231 -0.337113 -0.214485 -0.089043 
0.043796 0.000000 0.000000 -0.237142 -0.259861 -0.283811 
-0.309902 -0.339106 -0.372191 -0.410139 -0.454717 -0.507694 
-0.571436 -0.649133 -0.720426 -0.801016 -0.896701 -1.009998 
-1.143399 -1.285136 -1.403978 -1.524964 -1.642614 -1.749967 
-1.839156 -1.848287 -1.803173 -1.728760 -1.631266 -1.517852 
-1.385622 -1.197879 -1.022869 -0.861614 -0.713305 -0.576002 
-0.448066 -0.326492 -0.206624 -0.084139 0.045547 0.000000 
0.000000 -0.223682 -0.244814 -0.267409 -0.292291 -0.320346 
-0.352179 -0.388679 -0.431699 -0.483006 -0.544972 -0.620797 
-0.690530 -0.769673 -0.864048 -0.976265 -1.108915 -1.250431 
-1.369763 -1.491572 -1.610217 -1.718512 -1.808333 -1.817506 
-1.772074 -1.697186 -1.599254 -1.485623 -1.353609 -1.167110 
-0.993955 -0.835038 -0.689432 -0.555103 -0.430117 -0.311551 
-0.194898 -0.075828 0.050224 0.000000 0.000000 -0.210621 
-0.230322 -0.251649 -0.275357 -0.302262 -0.332817 -0.367817 
-0.409216 -0.458784 -0.518898 -0.592777 -0.660942 -0.738643 
-0.831722 -0.942886 -1.074835 -1.216256 -1.336329 -1.459240 
-1.579162 -1.688649 -1.779280 -1.788692 -1.743049 -1.667656 
-1.569131 -1.455034 -1.322942 -1.137475 -0.965997 -0.809274 
-0.666263 -0.534832 -0.412748 -0.297182 -0.183789 -0.068242 
0.053989 0.000000 0.000000 -0.198142 -0.216552 -0.236680 
-0.259228 -0.284958 -0.314194 -0.347648 -0.387372 -0.435139 
-0.493341 -0.565221 -0.631848 -0.708161 -0.800013 -0.910220 
-1.041599 -1.183125 -1.304245 -1.428584 -1.550098 -1.661039 
-1.752638 -1.762454 -1.716658 -1.640648 -1.541282 -1.426374 
-1.293812 -1.109040 -0.938967 -0.784229 -0.643653 -0.515003 
-0.395727 -0.283103 -0.172962 -0.060980 0.057320 0.000000 
0.000000 -0.186388 -0.203638 -0.222620 -0.244002 -0.268514 
-0.296380 -0.328252 -0.366255 -0.412173 -0.468417 -0.538263 
-0.603421 -0.678445 -0.769193 -0.878601 -1.009614 -1.151519 
-1.274042 -1.400178 -1.523631 -1.636297 -1.729004 -1.739360 
-1.693415 -1.616600 -1.516050 -1.399890 -1.266366 -1.081838 
-0.912815 -0.759787 -0.621437 -0.495410 -0.378805 -0.269021 
-0.162071 -0.053643 0.060685 0.000000 0.000000 -0.173071 
-0.189328 -0.207181 -0.227301 -0.250414 -0.276720 -0.306843 
-0.342945 -0.386830 -0.440936 -0.508581 -0.572226 -0.645958 
-0.735634 -0.844316 -0.975089 -1.117572 -1.241762 -1.369991 
-1.495680 -1.610320 -1.704277 -1.715374 -1.669382 -1.591683 
-1.489728 -1.372002 -1.237154 -1.052526 -0.884328 -0.732890 
-0.596734 -0.473373 -0.359531 -0.252737 -0.149196 -0.044594 
0.065435 0.000000 0.000000 -0.146888 -0.162459 -0.179027 
-0.197359 -0.218297 -0.242177 -0.269687 -0.302992 -0.343925 
-0.394963 -0.459492 -0.520846 -0.592573 -0.680509 -0.787847 
-0.917820 -1.060388 -1.185845 -1.315899 -1.443723 -1.560414 
-1.655871 -1.668331 -1.623087 -1.545317 -1.442749 -1.324221 
-1.188774 -1.004763 -0.838214 -0.689309 -0.556427 -0.436966 
-0.327263 -0.225006 -0.126584 -0.027649 0.076147 0.000000 
0.000000 -0.122433 -0.137327 -0.152617 -0.169163 -0.187913 
-0.209358 -0.234254 -0.264753 -0.302724 -0.350695 -0.412128 
-0.471335 -0.541240 -0.627655 -0.733917 -0.863422 -1.006500 
-1.133739 -1.266139 -1.396560 -1.515622 -1.612663 -1.626431 
-1.581675 -1.503350 -1.399539 -1.279517 -1.142798 -0.958892 
-0.793610 -0.646956 -0.517124 -0.401364 -0.295503 -0.197438 
-0.103807 -0.010214 0.087676 0.000000 0.000000 -0.099384 
-0.113669 -0.127751 -0.142573 -0.159191 -0.178244 -0.200559 
-0.228279 -0.263316 -0.308259 -0.366657 -0.423903 -0.492213 
-0.577369 -0.682870 -0.812286 -0.956360 -1.086009 -1.221386 
-1.354964 -1.476776 -1.575487 -1.590390 -1.545690 -1.466150 
-1.360304 -1.237964 -1.099225 -0.914946 -0.750582 -0.605914 
-0.478914 -0.366653 -0.264275 -0.169963 -0.080696 0.007987 
0.100419 0.000000 0.000000 -0.077423 -0.091216 -0.104213 
-0.117438 -0.132046 -0.148810 -0.168616 -0.193623 -0.225796 
-0.267795 -0.323272 -0.378791 -0.445781 -0.529995 -0.635101 
-0.764861 -0.910487 -1.043293 -1.182398 -1.319791 -1.444794 
-1.545259 -1.560996 -1.515744 -1.434147 -1.325312 -1.199703 
-1.058120 -0.873026 -0.709252 -0.566313 -0.441922 -0.332939 
-0.233629 -0.142555 -0.057149 0.027142 0.114664 0.000000 
0.000000 -0.056241 -0.069699 -0.081786 -0.093599 -0.106385 
-0.121021 -0.138438 -0.160848 -0.190280 -0.229474 -0.282200 
-0.336284 -0.402293 -0.485942 -0.591088 -0.721689 -0.869506 
-1.006355 -1.150071 -1.292050 -1.420742 -1.523031 -1.539162 
-1.492562 -1.407878 -1.294933 -1.164974 -1.019652 -0.833323 
-0.669818 -0.528343 -0.406317 -0.300356 -0.203656 -0.115255 
-0.033151 0.047327 0.130555 0.000000 0.000000 -0.033574 
-0.046723 -0.058447 -0.069726 -0.081702 -0.095100 -0.110767 
-0.131042 -0.158065 -0.194716 -0.244957 -0.298038 -0.363618 
-0.447376 -0.553356 -0.685703 -0.836785 -0.979013 -1.128596 
-1.276162 -1.409081 -1.513055 -1.528640 -1.479231 -1.389740 
-1.270960 -1.135150 -0.985035 -0.797163 -0.633760 -0.493525 
-0.373398 -0.269601 -0.174009 -0.086439 -0.006037 0.071511 
0.150124 0.000000 0.000000 -0.010305 -0.023255 -0.035007 
-0.046344 -0.058195 -0.071021 -0.085499 -0.104106 -0.129111 
-0.163569 -0.211686 -0.264223 -0.329914 -0.414415 -0.521969 
-0.656901 -0.812285 -0.961319 -1.118146 -1.272435 -1.410219 
-1.515776 -1.529891 -1.476226 -1.380221 -1.253907 -1.110774 
-0.954787 -0.764823 -0.601151 -0.461804 -0.343124 -0.240842 
-0.145716 -0.058239 0.021305 0.096662 0.171107 0.000000 
0.000000 0.011859 -0.001058 -0.012893 -0.024294 -0.036036 
-0.048425 -0.062009 -0.079298 -0.102687 -0.135403 -0.181900 
-0.234407 -0.300738 -0.386540 -0.496267 -0.634419 -0.794937 
-0.952138 -1.117572 -1.279743 -1.423079 -1.530178 -1.542104 
-1.483056 -1.379179 -1.243962 -1.092286 -0.929390 -0.736283 
-0.571488 -0.432328 -0.314530 -0.213337 -0.119296 -0.033005 
0.044985 0.118015 0.188919 0.000000 0.000000 0.032886 
0.019901 0.007986 -0.003433 -0.015033 -0.027126 -0.040192 
-0.056620 -0.078922 -0.110492 -0.156049 -0.209184 -0.276821 
-0.364618 -0.477233 -0.619323 -0.785874 -0.952783 -1.128343 
-1.299653 -1.449225 -1.557693 -1.566635 -1.501050 -1.387934 
-1.242459 -1.081054 -0.910175 -0.712449 -0.545314 -0.405329 
-0.287578 -0.186822 -0.094749 -0.011296 0.063909 0.133921 
0.201303 0.000000 0.000000 0.052814 0.039706 0.027752 
0.016390 0.004993 -0.006959 -0.019964 -0.036087 -0.057951 
-0.089123 -0.134604 -0.189195 -0.258971 -0.349621 -0.465994 
-0.612845 -0.786414 -0.964774 -1.152152 -1.333954 -1.490415 
-1.599904 -1.604966 -1.531663 -1.407938 -1.250872 -1.078586 
-0.898610 -0.694363 -0.523323 -0.381213 -0.262439 -0.161271 
-0.072170 0.006502 0.077404 0.143389 0.206900 0.000000 
0.000000 0.000000 0.000000 0.000000 0.000000 0.000000 
0.000000 0.000000 0.000000 0.000000 0.000000 0.000000 
0.000000 0.000000 0.000000 0.000000 0.000000 0.000000 
0.000000 0.000000 0.000000 0.000000 0.000000 0.000000 
0.000000 0.000000 0.000000 0.000000 0.000000 0.000000 
0.000000 0.000000 0.000000 0.000000 0.000000 0.000000 
0.000000 0.000000 0.000000 0.000000 
