# vtk DataFile Version 1.0
vtk output
ASCII
DATASET POLYDATA
POINTS 1600 float
-0.907473 0.011862 -0.907273 -0.828526 0.052763 -0.925839 
-0.750595 0.091012 -0.940459 -0.673802 0.126651 -0.951699 
-0.598269 0.159723 -0.960127 -0.524115 0.190272 -0.966310 
-0.451462 0.218339 -0.970810 -0.380437 0.243953 -0.974028 
-0.311170 0.267124 -0.976169 -0.243796 0.287862 -0.977424 
-0.178445 0.306177 -0.977986 -0.115251 0.322078 -0.978049 
-0.054330 0.335580 -0.977794 0.004289 0.346738 -0.977349 
0.060616 0.355616 -0.976813 0.114659 0.362281 -0.976292 
0.166425 0.366801 -0.975886 0.215923 0.369240 -0.975698 
0.263226 0.369656 -0.975775 0.308519 0.368085 -0.976067 
0.351999 0.364561 -0.976515 0.393862 0.359120 -0.977059 
0.434306 0.351796 -0.977640 0.473510 0.342627 -0.978198 
0.511503 0.331679 -0.978678 0.548226 0.319031 -0.979027 
0.583617 0.304765 -0.979190 0.617618 0.288963 -0.979115 
0.650166 0.271703 -0.978749 0.681233 0.253076 -0.978012 
0.710865 0.233187 -0.976761 0.739122 0.212145 -0.974842 
0.766064 0.190060 -0.972102 0.791752 0.167041 -0.968385 
0.816257 0.143186 -0.963559 0.839884 0.118391 -0.957827 
0.863122 0.092385 -0.951675 0.886469 0.064894 -0.945597 
0.910422 0.035641 -0.940085 0.935479 0.004352 -0.935634 
-0.925021 0.024549 -0.873801 -0.847859 0.067951 -0.894345 
-0.769431 0.108325 -0.909212 -0.690527 0.145813 -0.919443 
-0.611934 0.180555 -0.926082 -0.534441 0.212693 -0.930171 
-0.458828 0.242364 -0.932741 -0.385533 0.269622 -0.934440 
-0.314590 0.294417 -0.935456 -0.246005 0.316693 -0.935948 
-0.179787 0.336394 -0.936074 -0.115943 0.353465 -0.935995 
-0.054478 0.367868 -0.935853 0.004627 0.379683 -0.935691 
0.061396 0.389034 -0.935517 0.115857 0.396044 -0.935334 
0.168035 0.400838 -0.935149 0.217958 0.403539 -0.934966 
0.265704 0.404237 -0.934797 0.311440 0.402963 -0.934663 
0.355345 0.399743 -0.934584 0.397597 0.394601 -0.934584 
0.438372 0.387562 -0.934684 0.477839 0.378652 -0.934900 
0.516057 0.367899 -0.935202 0.553027 0.355329 -0.935531 
0.588749 0.340973 -0.935829 0.623221 0.324859 -0.936037 
0.656444 0.307014 -0.936097 0.688440 0.287496 -0.935938 
0.719290 0.266435 -0.935459 0.749084 0.243972 -0.934553 
0.777915 0.220250 -0.933115 0.805872 0.195412 -0.931038 
0.833039 0.169583 -0.928216 0.859380 0.142635 -0.924542 
0.884761 0.114228 -0.919911 0.909042 0.084016 -0.914217 
0.932086 0.051650 -0.907354 0.953754 0.016785 -0.899215 
-0.938706 0.036480 -0.836347 -0.861836 0.082103 -0.856771 
-0.782489 0.124336 -0.870837 -0.701833 0.163409 -0.879806 
-0.621035 0.199558 -0.884940 -0.541261 0.233013 -0.887501 
-0.463662 0.264004 -0.888736 -0.388852 0.292616 -0.889402 
-0.316793 0.318761 -0.889665 -0.247412 0.342341 -0.889655 
-0.180634 0.363257 -0.889501 -0.116383 0.381413 -0.889335 
-0.054589 0.396734 -0.889267 0.004798 0.409311 -0.889290 
0.061817 0.419290 -0.889350 0.116508 0.426821 -0.889393 
0.168913 0.432053 -0.889368 0.219071 0.435134 -0.889220 
0.267065 0.436169 -0.888938 0.313052 0.435188 -0.888581 
0.357194 0.432213 -0.888218 0.399654 0.427264 -0.887915 
0.440597 0.420364 -0.887739 0.480177 0.411534 -0.887750 
0.518479 0.400779 -0.887933 0.555544 0.388101 -0.888229 
0.591414 0.373500 -0.888580 0.626131 0.356974 -0.888927 
0.659736 0.338524 -0.889212 0.692290 0.318190 -0.889375 
0.723900 0.296112 -0.889347 0.754683 0.272450 -0.889064 
0.784756 0.247360 -0.888456 0.814234 0.221002 -0.887457 
0.843213 0.193516 -0.885989 0.871454 0.164757 -0.883773 
0.898435 0.134344 -0.880369 0.923629 0.101884 -0.875331 
0.946507 0.066990 -0.868213 0.966540 0.029271 -0.858568 
-0.949166 0.047720 -0.795587 -0.871516 0.095320 -0.814384 
-0.790993 0.139189 -0.826925 -0.708922 0.179641 -0.834498 
-0.626625 0.216992 -0.838391 -0.545426 0.251556 -0.839894 
-0.466630 0.283644 -0.840278 -0.390913 0.313375 -0.840303 
-0.318197 0.340643 -0.840113 -0.248356 0.365325 -0.839810 
-0.181266 0.387302 -0.839502 -0.116803 0.406451 -0.839293 
-0.054849 0.422681 -0.839268 0.004663 0.436073 -0.839392 
0.061786 0.446779 -0.839584 0.116570 0.454946 -0.839762 
0.169065 0.460726 -0.839844 0.219322 0.464267 -0.839749 
0.267428 0.465675 -0.839453 0.313529 0.464980 -0.839031 
0.357776 0.462206 -0.838567 0.400323 0.457373 -0.838147 
0.441321 0.450506 -0.837855 0.480918 0.441623 -0.837768 
0.519211 0.430726 -0.837879 0.556271 0.417804 -0.838135 
0.592166 0.402847 -0.838479 0.626965 0.385844 -0.838858 
0.660739 0.366785 -0.839218 0.693573 0.345701 -0.839508 
0.725597 0.322736 -0.839690 0.756946 0.298053 -0.839727 
0.787758 0.271813 -0.839585 0.818170 0.244178 -0.839227 
0.848290 0.215292 -0.838599 0.877777 0.185000 -0.837359 
0.905914 0.152899 -0.834925 0.931971 0.118578 -0.830706 
0.955221 0.081627 -0.824113 0.974936 0.041635 -0.814556 
-0.957042 0.058337 -0.752198 -0.877958 0.107701 -0.768448 
-0.796166 0.153030 -0.779063 -0.712992 0.194708 -0.785228 
-0.629759 0.233119 -0.788127 -0.547792 0.268647 -0.788944 
-0.468397 0.301669 -0.788849 -0.392240 0.332341 -0.788534 
-0.319216 0.360550 -0.788117 -0.249174 0.386167 -0.787681 
-0.181964 0.409064 -0.787311 -0.117435 0.429111 -0.787091 
-0.055446 0.446208 -0.787084 0.004084 0.460424 -0.787247 
0.061213 0.471895 -0.787492 0.115999 0.480754 -0.787732 
0.168500 0.487137 -0.787878 0.218775 0.491179 -0.787843 
0.266911 0.492976 -0.787599 0.313046 0.492560 -0.787218 
0.357325 0.489956 -0.786783 0.399890 0.485191 -0.786377 
0.440886 0.478288 -0.786082 0.480453 0.469271 -0.785974 
0.518696 0.458143 -0.786049 0.555701 0.444894 -0.786261 
0.591554 0.429518 -0.786561 0.626342 0.412004 -0.786901 
0.660151 0.392344 -0.787235 0.693082 0.370570 -0.787523 
0.725281 0.346823 -0.787748 0.756901 0.321258 -0.787900 
0.788094 0.294034 -0.787965 0.819012 0.265308 -0.787932 
0.849779 0.235218 -0.787770 0.880023 0.203606 -0.787143 
0.908964 0.170064 -0.785456 0.935809 0.134175 -0.782110 
0.959767 0.095526 -0.776505 0.980043 0.053701 -0.768039 
-0.962972 0.068398 -0.706857 -0.882222 0.119345 -0.720229 
-0.799233 0.166004 -0.728842 -0.715243 0.208811 -0.733708 
-0.631490 0.248200 -0.735839 -0.549212 0.284609 -0.736248 
-0.469629 0.318465 -0.735933 -0.393353 0.349955 -0.735483 
-0.320265 0.378971 -0.734995 -0.250204 0.405387 -0.734533 
-0.183006 0.429079 -0.734163 -0.118510 0.449923 -0.733951 
-0.056564 0.467817 -0.733945 0.002920 0.482816 -0.734104 
0.060005 0.495032 -0.734348 0.114752 0.504579 -0.734596 
0.167226 0.511567 -0.734771 0.217489 0.516111 -0.734792 
0.265629 0.518293 -0.734632 0.311778 0.518147 -0.734350 
0.356071 0.515699 -0.734016 0.398644 0.510979 -0.733699 
0.439634 0.504013 -0.733468 0.479175 0.494829 -0.733386 
0.517374 0.483434 -0.733450 0.554328 0.469829 -0.733621 
0.590131 0.454014 -0.733860 0.624879 0.435989 -0.734128 
0.658667 0.415752 -0.734386 0.691606 0.393340 -0.734605 
0.723855 0.368887 -0.734786 0.755576 0.342540 -0.734934 
0.786934 0.314447 -0.735056 0.818093 0.284757 -0.735157 
0.849188 0.253601 -0.735224 0.879863 0.220818 -0.734963 
0.909353 0.186006 -0.733838 0.936884 0.148754 -0.731310 
0.961678 0.108654 -0.726838 0.982959 0.065294 -0.719882 
-0.967589 0.077967 -0.660232 -0.885354 0.130350 -0.670976 
-0.801402 0.178254 -0.677829 -0.716860 0.222145 -0.681624 
-0.632860 0.262492 -0.683195 -0.550529 0.299760 -0.683375 
-0.470981 0.334411 -0.682990 -0.394765 0.366650 -0.682522 
-0.321753 0.396384 -0.682046 -0.251777 0.423497 -0.681613 
-0.184668 0.447877 -0.681273 -0.120257 0.469410 -0.681077 
-0.058386 0.488002 -0.681062 0.001036 0.503696 -0.681192 
0.058073 0.516581 -0.681403 0.112791 0.526750 -0.681629 
0.165254 0.534293 -0.681805 0.215529 0.539302 -0.681867 
0.263702 0.541847 -0.681789 0.309897 0.541959 -0.681617 
0.354244 0.539666 -0.681402 0.396869 0.534998 -0.681195 
0.437903 0.527981 -0.681049 0.477471 0.518643 -0.681009 
0.515683 0.507000 -0.681074 0.552640 0.493060 -0.681213 
0.588441 0.476833 -0.681397 0.623186 0.458327 -0.681595 
0.656976 0.437551 -0.681776 0.689927 0.414547 -0.681922 
0.722206 0.389439 -0.682047 0.753983 0.362368 -0.682166 
0.785433 0.333471 -0.682299 0.816726 0.302889 -0.682462 
0.848007 0.270744 -0.682658 0.878948 0.236876 -0.682633 
0.908828 0.200892 -0.681921 0.936913 0.162392 -0.680049 
0.962472 0.120975 -0.676544 0.984772 0.076242 -0.670935 
-0.971276 0.087062 -0.612771 -0.887959 0.140748 -0.621425 
-0.803355 0.189830 -0.626906 -0.718500 0.234785 -0.629900 
-0.634430 0.276092 -0.631088 -0.552183 0.314227 -0.631154 
-0.472779 0.349661 -0.630773 -0.396714 0.382615 -0.630341 
-0.323851 0.413007 -0.629916 -0.254016 0.440740 -0.629535 
-0.187033 0.465716 -0.629236 -0.122729 0.487837 -0.629059 
-0.060940 0.507023 -0.629030 -0.001573 0.523305 -0.629123 
0.055438 0.536759 -0.629288 0.110157 0.547460 -0.629476 
0.162651 0.555483 -0.629636 0.212985 0.560903 -0.629720 
0.261243 0.563779 -0.629707 0.307544 0.564137 -0.629628 
0.352007 0.562006 -0.629517 0.394752 0.557409 -0.629409 
0.435901 0.550372 -0.629341 0.475572 0.540921 -0.629343 
0.513874 0.529075 -0.629413 0.550910 0.514849 -0.629530 
0.586783 0.498260 -0.629674 0.621595 0.479323 -0.629821 
0.655448 0.458055 -0.629950 0.688464 0.434499 -0.630053 
0.720813 0.408776 -0.630147 0.752672 0.381018 -0.630259 
0.784218 0.351356 -0.630412 0.815628 0.319921 -0.630632 
0.847054 0.286830 -0.630928 0.878191 0.251926 -0.631076 
0.908358 0.214825 -0.630653 0.936863 0.175138 -0.629233 
0.963013 0.132474 -0.626387 0.986116 0.086445 -0.621689 
-0.974121 0.095642 -0.564652 -0.890110 0.150492 -0.571685 
-0.805144 0.200672 -0.576127 -0.720183 0.246653 -0.578538 
-0.636192 0.288906 -0.579479 -0.554132 0.327902 -0.579509 
-0.474952 0.364104 -0.579182 -0.399104 0.397738 -0.578818 
-0.326443 0.428741 -0.578464 -0.256788 0.457032 -0.578148 
-0.189960 0.482532 -0.577898 -0.125777 0.505161 -0.577743 
-0.064072 0.524854 -0.577704 -0.004751 0.541638 -0.577762 
0.052249 0.555577 -0.577881 0.106995 0.566735 -0.578028 
0.159550 0.575174 -0.578166 0.209980 0.580958 -0.578262 
0.258365 0.584136 -0.578298 0.304816 0.584731 -0.578293 
0.349443 0.582764 -0.578268 0.392361 0.578256 -0.578243 
[...]
POINT_DATA 1600
SCALARS scalars float
LOOKUP_TABLE default
0.000000 0.000000 0.000000 0.000000 0.000000 0.000000 
0.000000 0.000000 0.000000 0.000000 0.000000 0.000000 
0.000000 0.000000 0.000000 0.000000 0.000000 0.000000 
0.000000 0.000000 0.000000 0.000000 0.000000 0.000000 
0.000000 0.000000 0.000000 0.000000 0.000000 0.000000 
0.000000 0.000000 0.000000 0.000000 0.000000 0.000000 
0.000000 0.000000 0.000000 0.000000 0.000000 2.866096 
2.732824 2.048231 1.364884 0.854910 0.630662 0.622490 
0.624634 0.643492 0.682172 0.741519 0.793966 0.849016 
0.909292 0.972784 1.036040 1.108941 1.205876 1.288766 
1.360891 1.425902 1.486979 1.606160 1.778019 1.982170 
2.215985 2.475996 2.738731 2.883104 3.014148 3.130983 
3.222847 3.264083 3.951127 5.663510 7.561663 8.142642 
4.907326 0.000000 0.000000 2.031116 1.657804 1.187003 
0.776108 0.452307 0.302076 0.322056 0.352285 0.396610 
0.457442 0.535521 0.588879 0.640377 0.696263 0.756227 
0.819192 0.889998 0.972325 1.046467 1.113276 1.174091 
1.230307 1.345208 1.500385 1.668326 1.841212 2.010377 
2.144132 2.113243 2.060718 1.995334 1.919724 1.829454 
2.608124 4.339083 6.250424 7.677509 7.460876 0.000000 
0.000000 1.221599 0.934744 0.657686 0.425541 0.234549 
0.143204 0.164364 0.194339 0.235928 0.291184 0.360916 
0.407538 0.453015 0.503377 0.558827 0.619065 0.686846 
0.762751 0.834411 0.900854 0.961263 1.014841 1.108933 
1.224573 1.337463 1.439499 1.523083 1.563349 1.463146 
1.349119 1.231551 1.114954 0.998517 1.511552 2.621167 
3.816023 4.830986 5.181290 0.000000 0.000000 0.676463 
0.498365 0.343491 0.216256 0.110370 0.059819 0.074066 
0.094643 0.123750 0.163274 0.214373 0.251999 0.291468 
0.336999 0.388737 0.446351 0.510897 0.581297 0.649152 
0.712081 0.767463 0.812546 0.875899 0.942784 0.996568 
1.032462 1.047503 1.028609 0.918149 0.805034 0.697160 
0.597473 0.504990 0.776880 1.365301 1.982802 2.525226 
2.800334 0.000000 0.000000 0.330997 0.222438 0.139682 
0.076900 0.028918 0.007705 0.012958 0.021694 0.035726 
0.056948 0.087097 0.115307 0.148807 0.189591 0.237459 
0.291611 0.351428 0.414555 0.474871 0.528769 0.572141 
0.600785 0.627687 0.643753 0.641259 0.620598 0.584512 
0.531346 0.438607 0.354082 0.281549 0.221280 0.171134 
0.269901 0.494364 0.734723 0.961952 1.119815 0.000000 
0.000000 0.179449 0.100010 0.047936 0.013637 -0.007874 
-0.015091 -0.013067 -0.009093 -0.001590 0.011304 0.031634 
0.055449 0.085993 0.124180 0.169652 0.221373 0.277994 
0.336999 0.393067 0.441783 0.478049 0.496706 0.502440 
0.489572 0.455761 0.404804 0.342822 0.273989 0.193391 
0.127189 0.076573 0.040164 0.015042 0.034843 0.093257 
0.169670 0.268930 0.391572 0.000000 0.000000 0.161413 
0.096274 0.051480 0.020007 -0.002151 -0.009047 -0.001735 
0.007699 0.020641 0.038695 0.063594 0.089683 0.121518 
0.160388 0.206179 0.258236 0.315901 0.377855 0.438754 
0.493986 0.537913 0.564477 0.574134 0.561774 0.526129 
0.471253 0.403701 0.327995 0.239240 0.164726 0.105954 
0.061726 0.029222 0.045124 0.098940 0.166273 0.251204 
0.354164 0.000000 0.000000 0.145879 0.093595 0.056251 
0.028262 0.006090 -0.000380 0.011829 0.026333 0.044292 
0.067028 0.095931 0.123886 0.156616 0.195728 0.241325 
0.293107 0.351258 0.415851 0.481117 0.542343 0.593453 
0.627582 0.640874 0.628978 0.591777 0.533551 0.461220 
0.379607 0.283828 0.201943 0.135764 0.084296 0.044837 
0.056471 0.104902 0.162230 0.231490 0.312752 0.000000 
0.000000 0.133878 0.093143 0.063228 0.039134 0.017401 
0.011354 0.027954 0.047045 0.069524 0.096385 0.128641 
0.158005 0.191190 0.230050 0.274885 0.325736 0.383731 
0.450362 0.519198 0.585502 0.642860 0.683710 0.700248 
0.688945 0.650736 0.590040 0.514022 0.427727 0.326319 
0.238230 0.165601 0.107656 0.061846 0.068844 0.111162 
0.158092 0.211702 0.271893 0.000000 0.000000 0.125972 
0.095668 0.072979 0.052905 0.031802 0.026022 0.046407 
0.069508 0.095923 0.126280 0.161194 0.191518 0.224751 
0.262926 0.306515 0.355895 0.413129 0.480948 0.552241 
0.622313 0.684519 0.730740 0.750020 0.739573 0.701120 
0.639084 0.560704 0.471159 0.365746 0.272825 0.194881 
0.131394 0.079997 0.082004 0.117544 0.154093 0.192932 
0.233985 0.000000 0.000000 0.122482 0.101590 0.085660 
0.069351 0.048706 0.042826 0.066315 0.092761 0.122443 
0.155625 0.192528 0.223428 0.256422 0.293649 0.335727 
0.383354 0.439384 0.507358 0.579727 0.651903 0.717129 
0.766900 0.788291 0.779042 0.741236 0.679141 0.599876 
0.508654 0.401047 0.304836 0.222868 0.154914 0.098832 
0.095529 0.123729 0.150235 0.175702 0.200100 0.000000 
0.000000 0.114198 0.098646 0.086134 0.072187 0.053317 
0.047814 0.070355 0.096143 0.125451 0.158520 0.195522 
0.227517 0.262022 0.300995 0.344944 0.394375 0.451825 
0.520263 0.592051 0.662791 0.726199 0.774545 0.795765 
0.788327 0.754054 0.696573 0.622222 0.535660 0.432230 
0.337636 0.254799 0.183869 0.123289 0.114396 0.134316 
0.150030 0.163246 0.175231 0.000000 0.000000 0.106310 
0.094695 0.084433 0.072109 0.054786 0.049658 0.071001 
0.095869 0.124585 0.157416 0.194519 0.227687 0.263830 
0.304733 0.350776 0.402230 0.461046 0.529175 0.599313 
0.667321 0.727550 0.773300 0.794462 0.789914 0.760748 
0.709716 0.642132 0.561932 0.464150 0.372218 0.289227 
0.215873 0.151366 0.137527 0.149719 0.155203 0.156841 
0.157156 0.000000 0.000000 0.099693 0.091370 0.082823 
0.071689 0.055535 0.050706 0.071189 0.095454 0.123867 
0.156707 0.194075 0.228291 0.265788 0.308211 0.355842 
0.408775 0.468350 0.535367 0.603143 0.667858 0.724559 
0.767617 0.789214 0.788443 0.765425 0.721903 0.662036 
0.588957 0.497313 0.408290 0.325296 0.249725 0.181673 
0.163564 0.168876 0.164963 0.155686 0.144612 0.000000 
0.000000 0.093898 0.088421 0.081235 0.071018 0.055797 
0.051249 0.071157 0.095081 0.123417 0.156424 0.194094 
0.229164 0.267658 0.311106 0.359729 0.413515 0.473251 
0.538572 0.603587 0.664829 0.718069 0.758745 0.781214 
0.784814 0.768677 0.733453 0.682064 0.616756 0.531614 
0.445616 0.362618 0.284830 0.213335 0.191638 0.191081 
0.178651 0.159088 0.136877 0.000000 0.000000 0.088521 
0.085606 0.079584 0.070150 0.055748 0.051506 0.071065 
0.094852 0.123269 0.156509 0.194387 0.230063 0.269152 
0.313081 0.362062 0.416064 0.475432 0.538697 0.600841 
0.658765 0.708943 0.747824 0.771449 0.779656 0.770766 
0.744318 0.701954 0.644963 0.566586 0.483642 0.400531 
0.320369 0.245285 0.220754 0.215555 0.195547 0.166284 
0.133131 0.000000 0.000000 0.085748 0.085211 0.080041 
0.070882 0.056649 0.052355 0.071565 0.095054 0.123214 
0.156174 0.193611 0.229481 0.268991 0.313510 0.363328 
0.418474 0.478878 0.541863 0.603092 0.659498 0.707808 
0.744969 0.767594 0.776650 0.770442 0.748012 0.710306 
0.658110 0.584164 0.503252 0.420386 0.339446 0.263283 
0.238193 0.231162 0.207393 0.172815 0.133319 0.000000 
0.000000 0.089756 0.091103 0.085877 0.075551 0.059748 
0.054289 0.072576 0.094805 0.121388 0.152536 0.188107 
0.223703 0.264133 0.310800 0.364168 0.424310 0.490540 
0.558569 0.624104 0.683203 0.731691 0.765800 0.780989 
0.780510 0.764344 0.732649 0.687255 0.629767 0.553847 
0.472525 0.391316 0.314241 0.243911 0.222321 0.217943 
0.198400 0.168914 0.134903 0.000000 0.000000 0.093916 
0.096695 0.091108 0.079399 0.061908 0.055179 0.072269 
0.092920 0.117578 0.146571 0.179991 0.215232 0.256568 
0.305419 0.362435 0.427759 0.500199 0.574015 0.644744 
0.707392 0.756647 0.787789 0.794291 0.782524 0.754758 
0.712497 0.658597 0.595484 0.517506 0.436040 0.356902 
0.284048 0.219679 0.201933 0.200842 0.186150 0.162369 
0.134391 0.000000 0.000000 0.097493 0.101472 0.095387 
0.082238 0.063113 0.055141 0.070824 0.089667 0.112168 
0.138805 0.169962 0.204733 0.246850 0.297753 0.358279 
0.428669 0.507401 0.587608 0.664316 0.731307 0.781890 
0.810161 0.806950 0.782530 0.741967 0.688284 0.625434 
0.556599 0.476636 0.395442 0.318919 0.250784 0.192705 
0.178949 0.181338 0.171750 0.153942 0.132217 0.000000 
0.000000 0.099732 0.104936 0.098385 0.083885 0.063339 
0.054282 0.068425 0.085332 0.105572 0.129801 0.158735 
0.192881 0.235533 0.288179 0.351843 0.426879 0.511674 
0.598700 0.682019 0.754033 0.806443 0.831930 0.818271 
0.780295 0.726251 0.660779 0.588921 0.514491 0.432715 
0.352265 0.278925 0.216017 0.164589 0.154712 0.160383 
0.155853 0.144039 0.128575 0.000000 0.000000 0.099880 
0.106621 0.099803 0.084166 0.062554 0.052695 0.065247 
0.080195 0.098194 0.120098 0.146973 0.180289 0.223106 
0.277017 0.343224 0.422203 0.512524 0.606593 0.696955 
0.774505 0.829131 0.851893 0.827404 0.775502 0.707839 
0.630703 0.550151 0.470451 0.387091 0.307853 0.238199 
0.180927 0.136417 0.130039 0.138471 0.138723 0.132770 
0.123467 0.000000 0.000000 0.107957 0.111068 0.102494 
0.086127 0.064279 0.054589 0.067647 0.083073 0.101414 
0.123372 0.149818 0.181981 0.222744 0.273704 0.336233 
0.411238 0.498610 0.592515 0.684238 0.763910 0.820125 
0.842499 0.812882 0.755135 0.683480 0.605012 0.525870 
0.449844 0.371335 0.296936 0.231406 0.177212 0.134710 
0.130403 0.141282 0.143197 0.137583 0.126953 0.000000 
0.000000 0.117806 0.115839 0.105408 0.088865 0.067414 
0.058462 0.072983 0.089998 0.109870 0.133010 0.159876 
0.190774 0.228655 0.275120 0.331670 0.399683 0.480694 
0.571087 0.660964 0.740216 0.796740 0.819197 0.787795 
0.729124 0.658851 0.584220 0.510954 0.442001 0.370172 
0.301323 0.239485 0.186913 0.144180 0.141361 0.154721 
0.157292 0.150140 0.135626 0.000000 0.000000 0.126344 
0.119641 0.107741 0.091412 0.070715 0.062735 0.078845 
0.097610 0.119212 0.143777 0.171351 0.201041 0.236124 
0.278244 0.329000 0.390176 0.464753 0.550945 0.637827 
0.715277 0.770875 0.792783 0.760951 0.703392 0.636271 
0.566688 0.499850 0.437844 0.371862 0.307803 0.249051 
0.197674 0.154439 0.152965 0.168837 0.172291 0.163985 
0.146063 0.000000 0.000000 0.134697 0.123138 0.109867 
0.093931 0.074158 0.067254 0.085061 0.105713 0.129220 
0.155426 0.183963 0.212638 0.245183 0.283302 0.328666 
0.383413 0.451638 0.532763 0.615370 0.689548 0.742938 
0.763644 0.732840 0.678402 0.616063 0.552587 0.492633 
0.437416 0.376425 0.316359 0.260053 0.209416 0.165398 
0.165167 0.183637 0.188258 0.179249 0.158431 0.000000 
0.000000 0.143918 0.127059 0.112236 0.096614 0.077678 
0.071789 0.091369 0.114014 0.139566 0.167589 0.197289 
0.225289 0.255757 0.290434 0.331047 0.380030 0.442114 
0.517118 0.594034 0.663403 0.713308 0.732194 0.703929 
0.654542 0.598469 0.542035 0.489354 0.440760 0.383890 
0.326990 0.272438 0.222034 0.176916 0.177857 0.199059 
0.205182 0.195994 0.172868 0.000000 0.000000 0.154106 
0.130835 0.113739 0.097977 0.079619 0.074470 0.095355 
0.119525 0.146698 0.176218 0.206955 0.234881 0.264347 
0.297064 0.334732 0.379864 0.436911 0.504799 0.574088 
0.636088 0.679908 0.695059 0.669919 0.626753 0.577663 
0.528357 0.482401 0.439317 0.385209 0.330630 0.277612 
0.227793 0.182365 0.184160 0.207332 0.215304 0.207794 
0.185876 0.000000 0.000000 0.161731 0.127924 0.106041 
0.089001 0.071481 0.066604 0.085505 0.107693 0.133045 
0.161107 0.190991 0.219571 0.250719 0.285944 0.326581 
0.374324 0.431034 0.491952 0.549937 0.597542 0.626429 
0.629566 0.603210 0.563608 0.518454 0.472066 0.427394 
0.383911 0.329671 0.277712 0.229688 0.186365 0.147989 
0.149098 0.168560 0.178251 0.180127 0.176776 0.000000 
0.000000 0.172682 0.126760 0.099095 0.079980 0.062633 
0.057550 0.074049 0.093762 0.116725 0.142689 0.171021 
0.199927 0.232484 0.269963 0.313377 0.363631 0.419740 
0.472856 0.518945 0.551942 0.566129 0.557870 0.530871 
0.495033 0.453760 0.410073 0.366409 0.322472 0.269069 
0.220804 0.178807 0.142877 0.112281 0.112991 0.128631 
0.139696 0.150451 0.165308 0.000000 0.000000 0.186241 
0.127173 0.093151 0.071409 0.053702 0.048052 0.061879 
0.078784 0.098950 0.122326 0.148531 0.177247 0.210622 
0.249691 0.295195 0.347336 0.402390 0.447610 0.482147 
0.501303 0.501872 0.483382 0.455698 0.423053 0.385102 
0.343661 0.300743 0.256543 0.205278 0.161889 0.126870 
0.099012 0.076627 0.077123 0.088756 0.100541 0.119054 
0.150738 0.000000 0.000000 0.200403 0.128306 0.088019 
0.063477 0.045116 0.038713 0.049750 0.063678 0.080811 
0.101281 0.124938 0.152844 0.186241 0.225952 0.272494 
0.325465 0.378816 0.416593 0.440623 0.447446 0.436104 
0.408937 0.380133 0.349604 0.314102 0.274341 0.231978 
0.187904 0.140190 0.102817 0.075563 0.056225 0.042224 
0.042457 0.049614 0.061018 0.085380 0.131118 0.000000 
0.000000 0.211218 0.128497 0.083049 0.056049 0.037063 
0.029938 0.038205 0.049141 0.063172 0.080588 0.101449 
0.127911 0.160461 0.199737 0.246062 0.298528 0.349361 
0.380471 0.395458 0.391906 0.370739 0.336669 0.306155 
0.276449 0.242406 0.203767 0.161874 0.118423 0.075568 
0.045169 0.026260 0.015678 0.010037 0.009631 0.011404 
0.020756 0.048106 0.103375 0.000000 0.000000 0.230310 
0.181267 0.135427 0.096293 0.061850 0.046205 0.056114 
0.069162 0.085924 0.106850 0.132157 0.166418 0.209142 
0.260824 0.321801 0.390836 0.456913 0.495150 0.513389 
0.509881 0.487149 0.452023 0.428451 0.411115 0.389861 
0.361262 0.324014 0.276675 0.213965 0.161680 0.123072 
0.096916 0.079979 0.096589 0.137241 0.181371 0.225113 
0.258642 0.000000 0.000000 0.318613 0.316931 0.258706 
0.188731 0.118763 0.083580 0.097563 0.115588 0.138425 
0.166723 0.200878 0.250487 0.312848 0.388125 0.476788 
0.577246 0.673544 0.729999 0.761172 0.765720 0.747573 
0.715496 0.705009 0.708606 0.708905 0.697596 0.668730 
0.614228 0.510765 0.411551 0.328646 0.265334 0.219307 
0.270395 0.394976 0.517433 0.608091 0.621075 0.000000 
0.000000 0.469774 0.513316 0.430824 0.314328 0.193832 
0.130724 0.147726 0.169493 0.197005 0.231139 0.272544 
0.337929 0.421003 0.521243 0.639108 0.772339 0.900668 
0.980271 1.030227 1.049385 1.042413 1.019003 1.020214 
1.041139 1.060389 1.065275 1.045098 0.984888 0.841583 
0.692332 0.559735 0.452661 0.370013 0.456724 0.679631 
0.901097 1.059428 1.063358 0.000000 0.000000 0.581222 
0.746218 0.658541 0.485496 0.297805 0.197565 0.215960 
0.239543 0.269523 0.307034 0.353046 0.433829 0.537779 
0.663196 0.810237 0.975437 1.136931 1.250716 1.333400 
1.383493 1.404724 1.405050 1.414901 1.443064 1.472203 
1.486862 1.472251 1.408171 1.235742 1.039410 0.853947 
0.695178 0.563480 0.670041 0.990641 1.322474 1.553213 
1.519497 0.000000 0.000000 0.418631 0.915596 0.916795 
0.703458 0.440803 0.298884 0.315574 0.337365 0.365755 
0.402164 0.447934 0.541249 0.663201 0.810257 0.981772 
1.172236 1.364957 1.533784 1.677136 1.792211 1.878127 
1.934868 1.946714 1.958852 1.975160 1.981097 1.959909 
1.892299 1.722837 1.499234 1.267703 1.051434 0.851964 
0.919970 1.291036 1.711473 1.979866 1.806824 0.000000 
0.000000 0.000000 0.000000 0.000000 0.000000 0.000000 
0.000000 0.000000 0.000000 0.000000 0.000000 0.000000 
0.000000 0.000000 0.000000 0.000000 0.000000 0.000000 
0.000000 0.000000 0.000000 0.000000 0.000000 0.000000 
0.000000 0.000000 0.000000 0.000000 0.000000 0.000000 
0.000000 0.000000 0.000000 0.000000 0.000000 0.000000 
0.000000 0.000000 0.000000 0.000000 
