# vtk DataFile Version 1.0
vtk output
ASCII
DATASET POLYDATA
POINTS 1600 float
-0.954080 0.020463 -0.871060 -0.792301 0.070965 -0.875620 
-0.655316 0.117902 -0.880576 -0.541024 0.162798 -0.885667 
-0.447322 0.207177 -0.890632 -0.372109 0.252562 -0.895208 
-0.313270 0.300441 -0.899141 -0.268329 0.351143 -0.902309 
-0.234366 0.403600 -0.904761 -0.208438 0.456659 -0.906552 
-0.187600 0.509170 -0.907741 -0.168908 0.559979 -0.908383 
-0.149693 0.608086 -0.908523 -0.128991 0.653412 -0.908129 
-0.106487 0.696232 -0.907142 -0.081865 0.736821 -0.905500 
-0.054812 0.775455 -0.903145 -0.025015 0.812402 -0.900015 
0.007792 0.847417 -0.896101 0.043787 0.879347 -0.891477 
0.083140 0.906946 -0.886227 0.126020 0.928968 -0.880435 
0.172597 0.944167 -0.874186 0.222943 0.951385 -0.867600 
0.276179 0.950304 -0.861165 0.330882 0.941086 -0.855577 
0.385625 0.923897 -0.851534 0.438981 0.898906 -0.849733 
0.489523 0.866279 -0.850871 0.536433 0.826256 -0.855164 
0.580491 0.779269 -0.861560 0.622736 0.725778 -0.868806 
0.664206 0.666245 -0.875646 0.705940 0.601133 -0.880825 
0.748951 0.530927 -0.883225 0.793827 0.456553 -0.884034 
0.840803 0.379296 -0.886354 0.890101 0.300452 -0.893346 
0.941948 0.221318 -0.908167 0.996565 0.143190 -0.933979 
-0.937126 0.031182 -0.806622 -0.784153 0.074575 -0.805585 
-0.651516 0.118056 -0.808560 -0.538410 0.161867 -0.814000 
-0.444030 0.206248 -0.820360 -0.367570 0.251443 -0.826093 
-0.308191 0.297684 -0.829683 -0.263943 0.344945 -0.830600 
-0.231535 0.392888 -0.829505 -0.207596 0.441153 -0.827129 
-0.188757 0.489384 -0.824202 -0.171647 0.537222 -0.821457 
-0.153235 0.584301 -0.819506 -0.132586 0.630212 -0.818246 
-0.109565 0.674524 -0.817297 -0.084036 0.716810 -0.816278 
-0.055866 0.756640 -0.814809 -0.024919 0.793587 -0.812512 
0.008945 0.827154 -0.809184 0.045879 0.856731 -0.804928 
0.086034 0.881696 -0.799877 0.129565 0.901428 -0.794165 
0.176623 0.915304 -0.787926 0.227267 0.922719 -0.781325 
0.280621 0.923247 -0.774812 0.335277 0.916561 -0.769004 
0.389824 0.902334 -0.764516 0.442847 0.880241 -0.761966 
0.492936 0.849956 -0.761972 0.539304 0.811413 -0.764767 
0.582810 0.765226 -0.769589 0.624575 0.712120 -0.775510 
0.665722 0.652820 -0.781605 0.707376 0.588050 -0.786947 
0.750611 0.518598 -0.790694 0.795716 0.446310 -0.793407 
0.842322 0.373912 -0.796815 0.890043 0.304154 -0.802681 
0.938492 0.239789 -0.812767 0.987281 0.183569 -0.828837 
-0.927799 0.052564 -0.743146 -0.779148 0.086678 -0.740749 
-0.648695 0.124187 -0.742814 -0.536267 0.164365 -0.747565 
-0.441694 0.206490 -0.753227 -0.364801 0.249837 -0.758026 
-0.305373 0.293692 -0.760220 -0.261703 0.337687 -0.759245 
-0.230291 0.381871 -0.755946 -0.207530 0.426316 -0.751257 
-0.189815 0.471097 -0.746107 -0.173539 0.516286 -0.741428 
-0.155471 0.561861 -0.738005 -0.134707 0.607209 -0.735718 
-0.111227 0.651495 -0.734102 -0.085016 0.693880 -0.732692 
-0.056055 0.733529 -0.731021 -0.024326 0.769606 -0.728626 
0.010227 0.801489 -0.725250 0.047733 0.828935 -0.720998 
0.088326 0.851735 -0.716012 0.132143 0.869682 -0.710434 
0.179318 0.882571 -0.704407 0.229895 0.890165 -0.698092 
0.283032 0.891962 -0.691862 0.337381 0.887306 -0.686208 
0.391587 0.875539 -0.681622 0.444298 0.856002 -0.678596 
0.494161 0.828039 -0.677620 0.540426 0.791383 -0.678919 
0.583925 0.746798 -0.682012 0.625747 0.695213 -0.686308 
0.666980 0.637556 -0.691213 0.708711 0.574756 -0.696133 
0.751977 0.507818 -0.700517 0.796917 0.438990 -0.704504 
0.842932 0.371554 -0.708808 0.889399 0.308824 -0.714161 
0.935695 0.254114 -0.721293 0.981196 0.210738 -0.730935 
-0.924064 0.081788 -0.681838 -0.776480 0.105466 -0.680978 
-0.646660 0.135354 -0.682859 -0.534573 0.170062 -0.686208 
-0.440185 0.208199 -0.689753 -0.363464 0.248374 -0.692223 
-0.304330 0.289216 -0.692372 -0.261115 0.330052 -0.689851 
-0.230240 0.371047 -0.685395 -0.208009 0.412416 -0.679801 
-0.190731 0.454374 -0.673865 -0.174709 0.497136 -0.668386 
-0.156644 0.540789 -0.664035 -0.135657 0.584628 -0.660716 
-0.111795 0.627648 -0.658035 -0.085105 0.668844 -0.655602 
-0.055634 0.707208 -0.653024 -0.023430 0.741740 -0.649911 
0.011517 0.771788 -0.646048 0.049312 0.797322 -0.641531 
0.090073 0.818374 -0.636486 0.133916 0.834974 -0.631039 
0.180958 0.847155 -0.625316 0.231231 0.854896 -0.619457 
0.283942 0.857650 -0.613728 0.337828 0.854575 -0.608467 
0.391620 0.844824 -0.604015 0.444050 0.827551 -0.600710 
0.493851 0.801910 -0.598893 0.540310 0.767528 -0.598750 
0.584167 0.725271 -0.600072 0.626399 0.676205 -0.602584 
0.667984 0.621396 -0.606012 0.709896 0.561913 -0.610081 
0.753065 0.498887 -0.614525 0.797596 0.434575 -0.619219 
0.842912 0.372165 -0.624154 0.888416 0.314874 -0.629327 
0.933513 0.265918 -0.634731 0.977603 0.228513 -0.640362 
-0.923883 0.116030 -0.623907 -0.775344 0.129129 -0.626137 
-0.645223 0.150619 -0.628213 -0.533304 0.178725 -0.629774 
-0.439374 0.211672 -0.630457 -0.363218 0.247682 -0.629901 
-0.304575 0.285006 -0.627755 -0.261687 0.322723 -0.624028 
-0.230987 0.360915 -0.619162 -0.208802 0.399720 -0.613626 
-0.191459 0.439281 -0.607890 -0.175284 0.479737 -0.602421 
-0.156998 0.521111 -0.597614 -0.135743 0.562691 -0.593409 
-0.111588 0.603487 -0.589571 -0.084603 0.642509 -0.585867 
-0.054857 0.678765 -0.582062 -0.022420 0.711269 -0.577922 
0.012697 0.739414 -0.573331 0.050581 0.763258 -0.568372 
0.091331 0.782927 -0.563151 0.135044 0.798547 -0.557774 
0.181820 0.810245 -0.552347 0.231678 0.818084 -0.546978 
0.283881 0.821510 -0.541822 0.337256 0.819618 -0.537055 
0.390628 0.811500 -0.532855 0.442822 0.796246 -0.529400 
0.492662 0.772950 -0.526868 0.539470 0.741206 -0.525394 
0.583865 0.701929 -0.525008 0.626677 0.656247 -0.525721 
0.668739 0.605288 -0.527544 0.710881 0.550181 -0.530488 
0.753893 0.492103 -0.534549 0.797915 0.433047 -0.539446 
0.842538 0.375687 -0.544674 0.887341 0.322716 -0.549719 
0.931901 0.276826 -0.554068 0.975796 0.240712 -0.557206 
-0.925221 0.152468 -0.570557 -0.774935 0.155857 -0.576091 
-0.644190 0.169040 -0.578398 -0.532440 0.190122 -0.578110 
-0.439134 0.217204 -0.575860 -0.363725 0.248393 -0.572277 
-0.305623 0.281814 -0.567989 -0.262925 0.316385 -0.563380 
-0.232138 0.351971 -0.558555 -0.209677 0.388496 -0.553597 
-0.191956 0.425883 -0.548591 -0.175390 0.464054 -0.543621 
-0.156775 0.502853 -0.538757 -0.135268 0.541622 -0.533968 
-0.110928 0.579515 -0.529187 -0.083812 0.615685 -0.524347 
-0.053980 0.649286 -0.519379 -0.021490 0.679475 -0.514216 
0.013647 0.705731 -0.508848 0.051502 0.728106 -0.503363 
0.092156 0.746707 -0.497859 0.135689 0.761645 -0.492435 
0.182181 0.773027 -0.487188 0.231641 0.780902 -0.482212 
0.283377 0.784742 -0.477556 0.336300 0.783688 -0.473246 
0.389315 0.776878 -0.469304 0.441329 0.763450 -0.465754 
0.491247 0.742542 -0.462620 0.538418 0.713779 -0.459982 
0.583347 0.678060 -0.458060 0.626727 0.636490 -0.457101 
0.669252 0.590177 -0.457350 0.711614 0.540224 -0.459052 
0.754479 0.487765 -0.462418 0.798038 0.434388 -0.467080 
0.842090 0.382060 -0.472188 0.886421 0.332759 -0.476880 
0.930817 0.288463 -0.480291 0.975066 0.251149 -0.481557 
-0.926074 0.188322 -0.522958 -0.774460 0.183863 -0.530691 
-0.643376 0.189684 -0.532925 -0.531956 0.204014 -0.531050 
-0.439335 0.225082 -0.526457 -0.364647 0.251120 -0.520533 
-0.306992 0.280375 -0.514649 -0.264341 0.311706 -0.509475 
-0.233303 0.344702 -0.504846 -0.210406 0.379001 -0.500544 
-0.192179 0.414236 -0.496352 -0.175151 0.450044 -0.492054 
-0.156215 0.486032 -0.487458 -0.134534 0.521635 -0.482537 
-0.110129 0.556225 -0.477325 -0.083027 0.589172 -0.471858 
-0.053251 0.619846 -0.466169 -0.020826 0.647620 -0.460293 
0.014252 0.672085 -0.454295 0.052042 0.693211 -0.448293 
0.092606 0.711010 -0.442408 0.136010 0.725493 -0.436762 
0.182314 0.736669 -0.431480 0.231517 0.744507 -0.426668 
0.282953 0.748532 -0.422300 0.335587 0.748023 -0.418273 
0.388375 0.742256 -0.414482 0.440276 0.730507 -0.410822 
0.490249 0.712052 -0.407189 0.537658 0.686590 -0.403605 
0.582938 0.654932 -0.400427 0.626692 0.618069 -0.398063 
0.669527 0.576991 -0.396924 0.712048 0.532688 -0.397420 
0.754840 0.486161 -0.399913 0.798127 0.438572 -0.403964 
0.841839 0.391218 -0.408470 0.885895 0.345401 -0.412309 
0.930215 0.302420 -0.414357 0.974718 0.263578 -0.413492 
-0.925541 0.222170 -0.481065 -0.773585 0.212018 -0.489334 
-0.642707 0.211776 -0.491064 -0.531828 0.219997 -0.488022 
-0.439871 0.235231 -0.481978 -0.365757 0.256031 -0.474698 
-0.308378 0.280958 -0.467923 -0.265640 0.308912 -0.462466 
-0.234256 0.339203 -0.458019 -0.210869 0.371165 -0.454210 
-0.192123 0.404130 -0.450666 -0.174660 0.437432 -0.447013 
-0.155475 0.470434 -0.442924 -0.133719 0.502682 -0.438337 
-0.109366 0.533792 -0.433296 -0.082392 0.563380 -0.427845 
-0.052775 0.591062 -0.422025 -0.020488 0.616454 -0.415882 
0.014498 0.639258 -0.409505 0.052232 0.659324 -0.403067 
0.092760 0.676515 -0.396747 0.136130 0.690696 -0.390726 
0.182390 0.701732 -0.385185 0.231523 0.709465 -0.380281 
0.282872 0.713506 -0.375946 0.335414 0.713337 -0.371980 
0.388126 0.708438 -0.368187 0.439981 0.698289 -0.364367 
0.489957 0.682372 -0.360322 0.537425 0.660490 -0.356025 
0.582800 0.633297 -0.351904 0.626662 0.601584 -0.348460 
0.669596 0.566141 -0.346194 0.712183 0.527758 -0.345607 
0.754986 0.487226 -0.347142 0.798229 0.445328 -0.350290 
0.841855 0.402838 -0.353746 0.885800 0.360533 -0.356186 
0.929998 0.319187 -0.356281 0.974386 0.279576 -0.352705 
-0.924048 0.254236 -0.443365 -0.772524 0.239990 -0.450868 
-0.642248 0.234741 -0.451789 -0.532024 0.237466 -0.447964 
-0.440657 0.247142 -0.441227 -0.366953 0.262748 -0.433413 
-0.309691 0.283262 -0.426329 -0.266757 0.307695 -0.420807 
-0.234968 0.335098 -0.416508 -0.211074 0.364525 -0.413024 
-0.191827 0.395029 -0.409947 -0.173977 0.425663 -0.406866 
-0.154608 0.455566 -0.403416 -0.132856 0.484395 -0.399481 
-0.108638 0.512006 -0.395046 -0.081873 0.538256 -0.390094 
-0.052480 0.563002 -0.384608 -0.020377 0.586100 -0.378573 
0.014499 0.607353 -0.372065 0.052186 0.626471 -0.365324 
0.092719 0.643158 -0.358604 0.136130 0.657113 -0.352160 
[...]
POINT_DATA 1600
SCALARS scalars float
LOOKUP_TABLE default
0.000000 0.000000 0.000000 0.000000 0.000000 0.000000 
0.000000 0.000000 0.000000 0.000000 0.000000 0.000000 
0.000000 0.000000 0.000000 0.000000 0.000000 0.000000 
0.000000 0.000000 0.000000 0.000000 0.000000 0.000000 
0.000000 0.000000 0.000000 0.000000 0.000000 0.000000 
0.000000 0.000000 0.000000 0.000000 0.000000 0.000000 
0.000000 0.000000 0.000000 0.000000 0.000000 0.345505 
0.439355 0.394049 0.254599 0.103869 0.152616 0.411006 
0.445435 0.186927 -0.003489 0.057511 0.166705 0.280009 
0.424461 0.601196 0.784451 0.909312 0.987021 1.033437 
1.094503 1.193317 1.300914 1.321599 1.399177 1.602851 
1.908587 2.189878 2.146664 1.335588 0.667759 0.265141 
0.069578 -0.003539 -0.020343 -0.033768 -0.090268 -0.287964 
-0.898251 0.000000 0.000000 0.159363 0.316773 0.319664 
0.224572 0.126909 0.165791 0.365874 0.407456 0.177181 
-0.003903 0.069984 0.179527 0.292051 0.436847 0.619526 
0.831099 1.012915 1.089645 1.102227 1.081848 1.058226 
1.039819 1.072812 1.221778 1.490071 1.846284 2.163209 
2.115437 1.250007 0.571966 0.183010 0.005065 -0.053106 
-0.056067 -0.046901 -0.052238 -0.147362 -0.632453 0.000000 
0.000000 -0.048286 0.038630 0.125267 0.155219 0.154908 
0.211758 0.348681 0.342958 0.110114 -0.059175 0.037537 
0.157988 0.282669 0.443948 0.649678 0.899393 1.134337 
1.215994 1.204330 1.128893 1.030032 0.938928 0.975949 
1.153606 1.436567 1.786488 2.079653 1.994175 1.096902 
0.412576 0.036715 -0.118805 -0.152091 -0.128869 -0.082916 
-0.016941 0.045014 -0.088710 0.000000 0.000000 -0.194188 
-0.282609 -0.147896 0.062196 0.210959 0.319573 0.382177 
0.263429 -0.017399 -0.176651 -0.047480 0.092253 0.244326 
0.445484 0.703199 1.017856 1.320057 1.417249 1.390320 
1.275475 1.124161 0.981669 1.009747 1.189836 1.459302 
1.769641 1.997790 1.835729 0.886703 0.167947 -0.211876 
-0.345340 -0.342821 -0.275758 -0.166468 0.002605 0.242570 
0.443967 0.000000 0.000000 -0.278979 -0.501973 -0.378229 
0.012377 0.367518 0.579259 0.526578 0.180607 -0.216377 
-0.362537 -0.190592 -0.036224 0.155869 0.432192 0.795601 
1.234181 1.647568 1.784062 1.752309 1.605022 1.407459 
1.215710 1.209390 1.362160 1.592745 1.840163 1.975962 
1.693833 0.622733 -0.210877 -0.646671 -0.771677 -0.719468 
-0.577850 -0.354790 -0.029727 0.391793 0.791862 0.000000 
0.000000 -0.288874 -0.533026 -0.497849 -0.077151 0.486800 
0.906353 0.738898 0.066922 -0.512465 -0.632399 -0.380827 
-0.232043 -0.012028 0.357698 0.871371 1.479767 2.027541 
2.225132 2.204999 2.047141 1.828945 1.609326 1.526261 
1.595352 1.743521 1.902358 1.939573 1.532846 0.273761 
-0.816435 -1.432239 -1.597652 -1.474711 -1.199943 -0.784719 
-0.252121 0.297491 0.675208 0.000000 0.000000 -0.299519 
-0.564416 -0.712442 -0.512147 0.088042 0.763196 0.589344 
-0.315415 -1.018090 -1.058217 -0.659122 -0.557077 -0.389631 
-0.015015 0.555422 1.222457 1.807172 2.082937 2.136391 
2.063796 1.933434 1.785136 1.618654 1.551345 1.562057 
1.580175 1.471010 0.906187 -0.518008 -1.960930 -2.885507 
-3.120172 -2.829541 -2.270175 -1.527528 -0.732826 -0.108934 
0.134951 0.000000 0.000000 -0.328201 -0.597641 -0.881378 
-0.968080 -0.566805 0.169402 -0.095724 -1.213740 -1.906267 
-1.710258 -1.090974 -1.126330 -1.148850 -0.901342 -0.366452 
0.317111 0.957832 1.377814 1.575629 1.659466 1.683886 
1.664501 1.452144 1.261538 1.130876 0.981972 0.657393 
-0.208816 -1.943549 -3.945752 -5.376766 -5.676957 -4.968977 
-3.794013 -2.480416 -1.312024 -0.567525 -0.362240 0.000000 
0.000000 -0.343386 -0.597819 -0.957348 -1.316463 -1.370516 
-1.059525 -1.675829 -2.933302 -3.330935 -2.635495 -1.694841 
-1.922500 -2.231765 -2.197302 -1.727092 -0.981221 -0.225944 
0.293719 0.610220 0.832637 0.998858 1.100846 0.938184 
0.720776 0.512829 0.232562 -0.309546 -1.562921 -3.850107 
-6.701419 -8.881498 -9.185484 -7.658684 -5.425456 -3.299381 
-1.687689 -0.792613 -0.566520 0.000000 0.000000 -0.350840 
-0.571686 -0.946102 -1.483428 -2.085852 -2.757832 -4.218702 
-5.641799 -5.392168 -3.847940 -2.425980 -2.699959 -3.156409 
-3.236141 -2.783213 -1.956095 -1.163591 -0.781843 -0.491855 
-0.231102 -0.000593 0.159362 0.150493 0.028721 -0.167420 
-0.504951 -1.185792 -2.744866 -5.710847 -9.491611 -12.404086 
-12.509198 -9.856508 -6.375381 -3.426718 -1.440503 -0.446139 
-0.240915 0.000000 0.000000 -0.379968 -0.547917 -0.879910 
-1.455367 -2.441195 -4.282180 -7.140962 -9.150748 -8.123364 
-5.353101 -3.150159 -3.014137 -3.241469 -3.255087 -2.860600 
-2.141960 -1.582487 -1.592300 -1.469802 -1.251249 -1.008219 
-0.835149 -0.647869 -0.620293 -0.760222 -1.094854 -1.791803 
-3.391895 -6.794854 -10.979702 -13.984504 -13.609995 -10.108978 
-5.868442 -2.459434 -0.323985 0.632044 0.693358 0.000000 
0.000000 -0.404255 -0.454106 -0.622049 -1.005267 -1.938359 
-4.359340 -8.352026 -11.280136 -10.123447 -6.773670 -4.270334 
-3.077458 -2.492154 -2.149363 -1.840938 -1.512712 -1.373142 
-1.506558 -1.419937 -1.194037 -0.929259 -0.738575 -0.559971 
-0.559897 -0.739294 -1.108528 -1.785479 -3.174330 -6.118468 
-9.683994 -12.301090 -12.092317 -9.031556 -5.083201 -1.899071 
-0.019068 0.718756 0.663444 0.000000 0.000000 -0.388315 
-0.365967 -0.439649 -0.710488 -1.554889 -4.094479 -8.657150 
-12.700784 -12.089031 -8.330264 -5.477282 -3.264310 -2.106126 
-1.555174 -1.292800 -1.186656 -1.271318 -1.392109 -1.285053 
-1.029490 -0.732099 -0.512456 -0.367594 -0.414836 -0.637391 
-1.038868 -1.704027 -2.914041 -5.273595 -8.136155 -10.406489 
-10.553988 -8.163724 -4.615814 -1.671167 -0.065799 0.422324 
0.239309 0.000000 0.000000 -0.323871 -0.284784 -0.336207 
-0.577535 -1.352342 -3.691141 -8.096486 -12.756111 -13.155677 
-9.393060 -6.349006 -3.472301 -2.050751 -1.404186 -1.125857 
-1.070939 -1.207399 -1.268072 -1.128529 -0.854820 -0.547505 
-0.319753 -0.207803 -0.283206 -0.520819 -0.926759 -1.574204 
-2.666014 -4.503623 -6.736650 -8.673802 -9.132222 -7.404618 
-4.265781 -1.576131 -0.279130 -0.059588 -0.347951 0.000000 
0.000000 -0.217570 -0.210058 -0.300244 -0.578570 -1.302603 
-3.212198 -6.774981 -10.906174 -11.852945 -8.614907 -6.276579 
-3.696906 -2.399267 -1.715735 -1.314838 -1.122200 -1.127313 
-1.083843 -0.907438 -0.641753 -0.364691 -0.164307 -0.085054 
-0.164337 -0.385000 -0.766772 -1.393092 -2.433805 -3.859971 
-5.571846 -7.175079 -7.810591 -6.633421 -3.897973 -1.571478 
-0.693537 -0.761249 -1.070602 0.000000 0.000000 -0.094929 
-0.158371 -0.346996 -0.724437 -1.406553 -2.725094 -5.028273 
-7.598750 -7.701210 -4.693430 -4.531304 -4.115463 -3.564016 
-2.873420 -2.128224 -1.487525 -1.084527 -0.852034 -0.627812 
-0.397627 -0.190591 -0.050321 -0.000461 -0.063020 -0.245733 
-0.590554 -1.206062 -2.261152 -3.384535 -4.676895 -5.929978 
-6.547269 -5.691900 -3.323840 -1.597665 -1.364624 -1.735811 
-1.904781 0.000000 0.000000 -0.020419 -0.184477 -0.527367 
-1.054600 -1.680822 -2.302198 -3.255039 -4.087368 -2.930575 
0.081061 -2.417354 -5.799704 -6.645532 -5.853659 -4.296787 
-2.653974 -1.378339 -0.730792 -0.385674 -0.181069 -0.053794 
0.015667 0.042952 0.005346 -0.132579 -0.430483 -1.017839 
-2.079793 -3.015947 -4.049136 -5.027726 -5.458095 -4.523636 
-2.277289 -1.287910 -1.828735 -2.411444 -2.264534 0.000000 
0.000000 -0.034085 -0.264657 -0.716816 -1.337988 -1.892143 
-2.027520 -2.150328 -2.191475 -1.422907 -0.563735 -4.718942 
-9.733274 -11.183161 -9.888700 -7.182334 -4.280072 -1.973444 
-0.794285 -0.282893 -0.073487 0.004584 0.027234 0.037079 
0.011474 -0.087643 -0.317068 -0.799769 -1.723075 -2.532230 
-3.431820 -4.229716 -4.401109 -3.089528 -0.663923 0.048539 
-0.742098 -1.324478 -1.069369 0.000000 0.000000 -0.038313 
-0.281479 -0.766289 -1.404469 -1.892963 -1.808714 -1.615283 
-1.440175 -1.274580 -2.338848 -7.500329 -12.817992 -14.482645 
-12.807294 -9.209983 -5.307115 -2.233291 -0.744478 -0.186026 
-0.015174 0.017294 0.012244 0.003211 -0.029792 -0.113992 
-0.300541 -0.702852 -1.490313 -2.126151 -2.799145 -3.287138 
-3.092435 -1.423498 1.025282 1.620057 0.902808 0.470715 
0.778945 0.000000 0.000000 -0.002776 -0.210637 -0.650229 
-1.231679 -1.670331 -1.581430 -1.414273 -1.377992 -1.936926 
-4.366567 -9.215814 -13.427588 -14.642408 -12.881557 -9.221141 
-5.131672 -1.892563 -0.474982 -0.039201 0.031692 0.011259 
-0.009175 -0.042248 -0.095826 -0.178470 -0.336872 -0.674647 
-1.334809 -1.792806 -2.229370 -2.414873 -1.922161 -0.087250 
2.203094 2.993360 3.112618 3.512545 4.112479 0.000000 
0.000000 0.071746 -0.048690 -0.381252 -0.862872 -1.277801 
-1.350540 -1.491646 -1.933748 -3.383867 -6.558741 -9.718165 
-11.736720 -11.909962 -10.180585 -7.112504 -3.606326 -0.850125 
0.044891 0.154735 0.056365 -0.022990 -0.041822 -0.094781 
-0.171933 -0.258625 -0.397637 -0.681580 -1.224218 -1.521357 
-1.755947 -1.717429 -1.081906 0.636760 2.532684 3.765393 
5.799901 8.564266 10.332316 0.000000 0.000000 0.146953 
0.180848 -0.013727 -0.400643 -0.826924 -1.181904 -1.912886 
-3.279847 -5.921459 -9.360041 -10.003112 -9.245966 -8.196896 
-6.394114 -3.915572 -1.173634 0.736421 0.725671 0.311091 
-0.012993 -0.137360 -0.118151 -0.163648 -0.253273 -0.342980 
-0.467376 -0.703875 -1.136598 -1.299204 -1.383692 -1.217229 
-0.594572 0.755990 2.028555 3.758706 8.778438 16.335087 
21.065889 0.000000 0.000000 0.046617 0.213991 0.171514 
-0.055742 -0.406274 -1.030658 -2.425617 -4.951911 -8.681113 
-11.646169 -10.003392 -6.486143 -4.401424 -2.668268 -0.890778 
0.873393 1.789898 1.086545 0.354335 -0.075449 -0.217532 
-0.193358 -0.111370 -0.066450 -0.036062 -0.022273 -0.064117 
-0.257091 -0.536517 -0.772308 -0.855488 -0.709742 -0.241493 
0.260926 2.645493 10.591253 21.985418 26.733501 0.000000 
0.000000 -0.110541 0.109196 0.157389 0.069524 -0.137736 
-0.749605 -2.256598 -4.994620 -8.506472 -10.418071 -7.958382 
-3.969121 -1.826308 -0.424261 0.755435 1.781862 2.077078 
1.193707 0.435982 0.015284 -0.129342 -0.127976 0.096284 
0.312906 0.509098 0.716805 0.926675 0.979993 0.434257 
-0.078493 -0.484042 -0.783265 -0.987221 -0.999441 1.575955 
10.626291 22.427858 23.000435 0.000000 0.000000 -0.203733 
-0.003470 0.082189 0.103709 0.078386 -0.277835 -1.415448 
-3.548778 -6.083367 -7.045062 -4.588997 -1.545643 0.038803 
0.925422 1.532358 1.968348 1.909055 1.186114 0.616971 
0.303026 0.183258 0.157795 0.470647 0.815035 1.144481 
1.505749 1.893466 2.069047 1.242571 0.498537 -0.120213 
-0.656703 -1.160446 -1.387059 0.953913 9.324470 18.928665 
15.101487 0.000000 0.000000 -0.198757 -0.087614 -0.007575 
0.103471 0.297471 0.372588 -0.161032 -1.498813 -3.212388 
-3.667337 -1.236439 0.736174 1.556604 1.813592 1.825464 
1.749662 1.515359 1.147763 0.920097 0.803151 0.742187 
0.688831 1.020133 1.426223 1.822482 2.245611 2.674873 
2.818649 1.767334 0.890245 0.178206 -0.436643 -0.996061 
-1.239170 0.682258 7.290637 13.387729 6.824648 0.000000 
0.000000 -0.118414 -0.140119 -0.112173 0.051948 0.483732 
1.094206 1.168074 0.375126 -1.004408 -1.325163 1.193673 
2.518419 2.628295 2.255316 1.747035 1.331836 1.115414 
1.154812 1.305540 1.427740 1.458067 1.388238 1.677659 
2.070907 2.443979 2.809258 3.133600 3.132168 1.968859 
1.072336 0.367112 -0.227812 -0.726488 -0.907305 0.563012 
5.142756 7.780908 -0.025737 0.000000 0.000000 -0.034855 
-0.174788 -0.260807 -0.155146 0.401188 1.433795 1.912311 
1.367104 0.121130 -0.149879 2.211196 3.095156 2.687475 
1.947891 1.304393 0.969526 1.031998 1.405657 1.807628 
2.087694 2.181522 2.092015 2.320341 2.660417 2.952022 
3.189564 3.343319 3.167537 1.963077 1.100015 0.442969 
-0.099283 -0.524010 -0.675009 0.326550 3.143962 3.572920 
-4.211360 0.000000 0.000000 -0.007921 -0.136801 -0.345326 
-0.529275 -0.435286 0.100090 0.422675 0.262229 -0.123205 
0.030622 1.314394 1.547304 1.266965 1.162736 1.381267 
1.817410 2.316679 2.708215 2.955031 3.058095 3.010772 
2.819925 3.068868 3.483976 3.833718 4.080818 4.164979 
3.781928 2.240559 1.208874 0.481667 -0.078444 -0.511914 
-0.792964 -0.387740 1.252687 2.262585 -1.758544 0.000000 
0.000000 -0.010686 -0.085162 -0.342545 -0.719560 -0.968234 
-0.826300 -0.676886 -0.597365 -0.432189 -0.039329 0.526983 
0.422153 0.376829 0.900150 1.947932 3.112788 3.871954 
3.986883 3.891507 3.712264 3.483396 3.204787 3.597044 
4.222195 4.743780 5.079255 5.122253 4.499200 2.534886 
1.286505 0.449376 -0.179543 -0.697597 -1.141880 -1.071234 
0.073162 1.514602 -0.112212 0.000000 0.000000 -0.004383 
-0.019630 -0.253148 -0.679804 -1.079874 -1.179998 -1.189155 
-0.994652 -0.551120 -0.082620 0.068622 -0.133379 0.082046 
1.121370 2.874872 4.701187 5.584952 5.168475 4.543926 
3.953954 3.463572 3.062022 3.648053 4.579198 5.394476 
5.947600 6.053664 5.234095 2.802783 1.295732 0.304497 
-0.450300 -1.131387 -1.775139 -1.872532 -0.809310 1.073127 
1.204796 0.000000 0.000000 0.008611 0.045029 -0.123519 
-0.501160 -0.919373 -1.165969 -1.324405 -1.138080 -0.623733 
-0.158174 -0.161014 -0.303524 0.127670 1.526951 3.829568 
6.223825 7.120571 6.014580 4.757826 3.704900 2.922692 
2.369279 3.055222 4.220459 5.332033 6.198954 6.545611 
5.731515 2.928148 1.149504 -0.047316 -1.002981 -1.943321 
-2.825069 -2.945845 -1.672922 0.686807 2.152678 0.000000 
0.000000 0.008655 0.091745 -0.011619 -0.319137 -0.707723 
-1.048667 -1.344321 -1.279385 -0.844089 -0.394431 -0.340501 
-0.331305 0.219027 1.792401 4.439586 7.194662 7.948835 
6.183230 4.397297 3.007375 2.029704 1.364892 1.941535 
3.076690 4.272042 5.355211 6.035983 5.539825 2.676071 
0.656032 -0.822634 -2.095761 -3.416885 -4.537591 -4.496862 
-2.782939 0.080972 2.505331 0.000000 0.000000 0.041004 
0.077885 -0.010319 -0.213509 -0.463753 -0.762754 -1.128745 
-1.330541 -1.215849 -0.817437 -0.290884 0.224826 0.984990 
2.391762 4.461066 6.329705 6.391438 4.574857 2.966243 
1.780756 0.948814 0.355214 0.651822 1.461058 2.398390 
3.331508 4.064701 3.948633 1.563777 -0.578581 -2.470159 
-4.286024 -6.135237 -7.283082 -6.646227 -4.222555 -1.052991 
1.382952 0.000000 0.000000 0.121944 0.048151 -0.064066 
-0.185863 -0.303152 -0.499548 -0.840105 -1.180821 -1.267268 
-0.844531 0.292781 1.426287 2.602418 3.887616 4.940378 
5.208920 4.325264 2.711162 1.505609 0.665206 0.074874 
-0.356927 -0.261457 0.248185 0.873314 1.482104 1.930269 
1.754055 -0.217722 -2.702581 -5.511172 -8.497405 -11.220935 
-12.011776 -10.057328 -6.321896 -2.489879 0.014434 0.000000 
0.000000 0.188365 0.011608 -0.107609 -0.169269 -0.200273 
-0.312461 -0.600295 -0.955651 -1.073632 -0.529347 1.266152 
3.118027 5.018037 6.519545 6.633765 5.197891 3.152967 
1.369407 0.301489 -0.319706 -0.678232 -0.881213 -0.829031 
-0.491303 -0.097721 0.214143 0.284675 -0.318191 -2.248182 
-5.451754 -9.902966 -15.016745 -19.007696 -18.825447 -14.662558 
-8.848808 -3.689853 -0.455250 0.000000 0.000000 0.086853 
-0.070653 -0.144760 -0.150775 -0.114620 -0.149925 -0.398474 
-0.757649 -0.862731 -0.117759 2.515617 5.311752 8.273242 
10.388053 9.830092 6.666368 2.938996 0.283199 -0.975526 
-1.420928 -1.454926 -1.311384 -1.147275 -0.881902 -0.652001 
-0.572023 -0.822818 -1.867891 -3.779312 -7.362136 -12.982973 
-19.979534 -25.277643 -24.604332 -18.459330 -10.580161 -3.978982 
0.140831 0.000000 0.000000 -0.438472 -0.232251 -0.187535 
-0.150023 -0.055558 0.002044 -0.246626 -0.691097 -0.834143 
0.193289 3.910105 7.687238 11.658638 14.752747 14.555099 
10.256013 3.939546 -0.829735 -2.642229 -2.799807 -2.305326 
-1.693057 -1.296147 -1.033294 -0.908774 -0.981151 -1.423566 
-2.665017 -4.216963 -7.091681 -11.720206 -17.949511 -23.669601 
-24.754498 -18.879988 -10.461378 -3.222878 1.211790 0.000000 
0.000000 0.000000 0.000000 0.000000 0.000000 0.000000 
0.000000 0.000000 0.000000 0.000000 0.000000 0.000000 
0.000000 0.000000 0.000000 0.000000 0.000000 0.000000 
0.000000 0.000000 0.000000 0.000000 0.000000 0.000000 
0.000000 0.000000 0.000000 0.000000 0.000000 0.000000 
0.000000 0.000000 0.000000 0.000000 0.000000 0.000000 
0.000000 0.000000 0.000000 0.000000 
