# vtk DataFile Version 1.0
vtk output
ASCII
DATASET POLYDATA
POINTS 8281 float
-0.952937 -0.018577 -0.994148 -0.916721 -0.009550 -0.997121 
-0.880510 -0.000510 -1.000075 -0.844345 0.008539 -1.002999 
-0.808266 0.017591 -1.005882 -0.772316 0.026643 -1.008712 
-0.736534 0.035689 -1.011477 -0.700962 0.044725 -1.014165 
-0.665640 0.053746 -1.016765 -0.630611 0.062748 -1.019265 
-0.595914 0.071724 -1.021654 -0.561591 0.080671 -1.023920 
-0.527682 0.089585 -1.026051 -0.494229 0.098459 -1.028036 
-0.461265 0.107289 -1.029865 -0.428807 0.116067 -1.031538 
-0.396867 0.124783 -1.033053 -0.365456 0.133429 -1.034410 
-0.334589 0.141996 -1.035608 -0.304277 0.150477 -1.036648 
-0.274533 0.158862 -1.037528 -0.245369 0.167142 -1.038248 
-0.216799 0.175310 -1.038808 -0.188834 0.183356 -1.039207 
-0.161488 0.191272 -1.039444 -0.134773 0.199049 -1.039519 
-0.108701 0.206679 -1.039432 -0.083275 0.214155 -1.039185 
-0.058479 0.221477 -1.038788 -0.034294 0.228642 -1.038251 
-0.010705 0.235649 -1.037583 0.012307 0.242498 -1.036793 
0.034760 0.249187 -1.035893 0.056671 0.255714 -1.034891 
0.078058 0.262078 -1.033798 0.098939 0.268279 -1.032622 
0.119330 0.274315 -1.031374 0.139249 0.280185 -1.030064 
0.158715 0.285887 -1.028702 0.177745 0.291420 -1.027296 
0.196359 0.296777 -1.025855 0.214583 0.301943 -1.024384 
0.232442 0.306903 -1.022886 0.249961 0.311642 -1.021366 
0.267164 0.316145 -1.019829 0.284078 0.320397 -1.018280 
0.300727 0.324384 -1.016722 0.317136 0.328090 -1.015162 
0.333330 0.331500 -1.013602 0.349335 0.334599 -1.012048 
0.365175 0.337372 -1.010504 0.380876 0.339805 -1.008974 
0.396462 0.341882 -1.007465 0.411953 0.343584 -1.005981 
0.427361 0.344892 -1.004534 0.442700 0.345784 -1.003131 
0.457985 0.346240 -1.001782 0.473228 0.346238 -1.000496 
0.488443 0.345758 -0.999283 0.503644 0.344780 -0.998151 
0.518844 0.343281 -0.997110 0.534057 0.341242 -0.996168 
0.549297 0.338642 -0.995336 0.564576 0.335460 -0.994622 
0.579909 0.331675 -0.994035 0.595309 0.327268 -0.993583 
0.610780 0.322242 -0.993262 0.626323 0.316609 -0.993058 
0.641940 0.310385 -0.992960 0.657630 0.303582 -0.992956 
0.673395 0.296214 -0.993032 0.689235 0.288296 -0.993177 
0.705152 0.279841 -0.993379 0.721145 0.270862 -0.993624 
0.737216 0.261374 -0.993901 0.753365 0.251391 -0.994197 
0.769594 0.240925 -0.994499 0.785902 0.229992 -0.994797 
0.802291 0.218607 -0.995078 0.818754 0.206799 -0.995339 
0.835284 0.194603 -0.995580 0.851876 0.182053 -0.995802 
0.868522 0.169184 -0.996003 0.885214 0.156030 -0.996185 
0.901947 0.142625 -0.996347 0.918712 0.129005 -0.996488 
0.935504 0.115203 -0.996609 0.952314 0.101254 -0.996710 
0.969137 0.087193 -0.996791 0.985964 0.073053 -0.996851 
1.002790 0.058870 -0.996891 -0.951917 -0.018127 -0.964807 
-0.916118 -0.009267 -0.967769 -0.880319 -0.000403 -0.970716 
-0.844561 0.008463 -0.973638 -0.808884 0.017326 -0.976521 
-0.773327 0.026184 -0.979353 -0.737929 0.035032 -0.982124 
-0.702732 0.043866 -0.984821 -0.667773 0.052684 -0.987433 
-0.633094 0.061481 -0.989947 -0.598733 0.070254 -0.992351 
-0.564731 0.078998 -0.994634 -0.531127 0.087711 -0.996784 
-0.497960 0.096389 -0.998789 -0.465265 0.105026 -1.000640 
-0.433055 0.113617 -1.002335 -0.401344 0.122153 -1.003874 
-0.370144 0.130627 -1.005257 -0.339468 0.139032 -1.006482 
-0.309328 0.147359 -1.007549 -0.279736 0.155602 -1.008458 
-0.250706 0.163753 -1.009208 -0.222250 0.171805 -1.009800 
-0.194379 0.179750 -1.010231 -0.167108 0.187581 -1.010503 
-0.140448 0.195290 -1.010613 -0.114411 0.202869 -1.010563 
-0.089001 0.210314 -1.010354 -0.064202 0.217620 -1.009996 
-0.039998 0.224787 -1.009497 -0.016372 0.231810 -1.008868 
0.006694 0.238689 -1.008116 0.029214 0.245420 -1.007252 
0.051207 0.252001 -1.006284 0.072689 0.258429 -1.005223 
0.093677 0.264703 -1.004077 0.114186 0.270819 -1.002855 
0.134235 0.276775 -1.001567 0.153839 0.282568 -1.000222 
0.173016 0.288197 -0.998829 0.191786 0.293652 -0.997396 
0.210171 0.298920 -0.995928 0.228198 0.303984 -0.994430 
0.245889 0.308829 -0.992907 0.263269 0.313441 -0.991365 
0.280362 0.317804 -0.989809 0.297193 0.321902 -0.988244 
0.313785 0.325721 -0.986675 0.330163 0.329245 -0.985107 
0.346351 0.332459 -0.983546 0.362372 0.335348 -0.981997 
0.378252 0.337896 -0.980466 0.394014 0.340088 -0.978956 
0.409676 0.341906 -0.977475 0.425252 0.343331 -0.976032 
0.440754 0.344343 -0.974634 0.456197 0.344922 -0.973290 
0.471592 0.345048 -0.972006 0.486955 0.344702 -0.970793 
0.502297 0.343863 -0.969657 0.517632 0.342513 -0.968607 
0.532974 0.340630 -0.967651 0.548335 0.338196 -0.966796 
0.563729 0.335191 -0.966052 0.579169 0.331594 -0.965426 
0.594668 0.327389 -0.964925 0.610231 0.322577 -0.964544 
0.625858 0.317172 -0.964274 0.641551 0.311187 -0.964101 
0.657311 0.304636 -0.964017 0.673139 0.297532 -0.964009 
0.689035 0.289890 -0.964067 0.705001 0.281723 -0.964179 
0.721038 0.273044 -0.964335 0.737146 0.263867 -0.964523 
0.753327 0.254205 -0.964733 0.769581 0.244072 -0.964953 
0.785910 0.233483 -0.965173 0.802314 0.222451 -0.965383 
0.818787 0.211009 -0.965579 0.835324 0.199191 -0.965761 
0.851916 0.187032 -0.965929 0.868558 0.174570 -0.966081 
0.885242 0.161838 -0.966217 0.901962 0.148873 -0.966338 
0.918711 0.135711 -0.966441 0.935481 0.122386 -0.966528 
0.952267 0.108935 -0.966596 0.969061 0.095392 -0.966646 
0.985856 0.081795 -0.966678 1.002646 0.068177 -0.966689 
-0.950921 -0.017683 -0.935465 -0.915517 -0.008986 -0.938423 
-0.880110 -0.000294 -0.941370 -0.844739 0.008392 -0.944295 
-0.809442 0.017068 -0.947184 -0.774258 0.025733 -0.950026 
-0.739225 0.034384 -0.952809 -0.704383 0.043018 -0.955520 
-0.669768 0.051633 -0.958148 -0.635421 0.060226 -0.960680 
-0.601379 0.068796 -0.963105 -0.567681 0.077339 -0.965410 
-0.534366 0.085852 -0.967583 -0.501471 0.094335 -0.969612 
-0.469030 0.102782 -0.971488 -0.437057 0.111188 -0.973209 
-0.405566 0.119548 -0.974774 -0.374567 0.127853 -0.976184 
-0.344074 0.136098 -0.977437 -0.314099 0.144276 -0.978534 
-0.284655 0.152381 -0.979473 -0.255753 0.160407 -0.980254 
-0.227407 0.168347 -0.980876 -0.199629 0.176195 -0.981340 
-0.172432 0.183944 -0.981644 -0.145827 0.191588 -0.981788 
-0.119827 0.199120 -0.981772 -0.094435 0.206535 -0.981598 
-0.069637 0.213829 -0.981274 -0.045417 0.220999 -0.980810 
-0.021759 0.228041 -0.980215 0.001353 0.234952 -0.979496 
0.023935 0.241727 -0.978663 0.046002 0.248363 -0.977725 
0.067571 0.254857 -0.976691 0.088656 0.261206 -0.975569 
0.109275 0.267404 -0.974368 0.129443 0.273450 -0.973097 
0.149176 0.279338 -0.971766 0.168489 0.285066 -0.970382 
0.187403 0.290625 -0.968953 0.205939 0.295999 -0.967486 
0.224122 0.301173 -0.965985 0.241974 0.306131 -0.964457 
0.259519 0.310858 -0.962908 0.276781 0.315339 -0.961343 
0.293782 0.319557 -0.959767 0.310546 0.323497 -0.958188 
0.327096 0.327144 -0.956611 0.343456 0.330481 -0.955040 
0.359648 0.333495 -0.953483 0.375697 0.336168 -0.951945 
0.391624 0.338486 -0.950432 0.407449 0.340431 -0.948950 
0.423183 0.341984 -0.947507 0.438840 0.343126 -0.946109 
0.454432 0.343838 -0.944764 0.469974 0.344102 -0.943479 
0.485476 0.343899 -0.942261 0.500953 0.343209 -0.941117 
0.516418 0.342014 -0.940055 0.531882 0.340295 -0.939081 
0.547360 0.338033 -0.938202 0.562864 0.335209 -0.937427 
0.578408 0.331805 -0.936762 0.594002 0.327802 -0.936212 
0.609654 0.323205 -0.935775 0.625363 0.318026 -0.935440 
0.641131 0.312278 -0.935197 0.656959 0.305975 -0.935037 
0.672848 0.299131 -0.934950 0.688800 0.291758 -0.934926 
0.704815 0.283871 -0.934955 0.720895 0.275482 -0.935027 
0.737041 0.266606 -0.935133 0.753254 0.257255 -0.935262 
0.769536 0.247444 -0.935405 0.785887 0.237185 -0.935552 
0.802308 0.226495 -0.935693 0.818794 0.215404 -0.935827 
0.835338 0.203949 -0.935951 0.851934 0.192167 -0.936066 
0.868575 0.180094 -0.936169 0.885255 0.167768 -0.936260 
0.901966 0.155224 -0.936338 0.918702 0.142499 -0.936402 
0.935457 0.129631 -0.936451 0.952223 0.116655 -0.936484 
0.968994 0.103609 -0.936500 0.985764 0.090529 -0.936498 
1.002525 0.077452 -0.936477 -0.949951 -0.017236 -0.906120 
-0.914923 -0.008697 -0.909081 -0.879888 -0.000173 -0.912034 
-0.844884 0.008336 -0.914968 -0.809947 0.016828 -0.917870 
-0.775117 0.025303 -0.920727 -0.740429 0.033758 -0.923527 
-0.705922 0.042193 -0.926257 -0.671633 0.050607 -0.928907 
-0.637600 0.058998 -0.931462 -0.603860 0.067366 -0.933911 
-0.570450 0.075709 -0.936242 -0.537408 0.084025 -0.938441 
-0.504773 0.092315 -0.940498 -0.472573 0.100575 -0.942402 
-0.440826 0.108801 -0.944151 -0.409543 0.116986 -0.945746 
-0.378737 0.125127 -0.947185 -0.348419 0.133216 -0.948467 
-0.318603 0.141250 -0.949594 -0.289300 0.149222 -0.950563 
-0.260523 0.157126 -0.951375 -0.232285 0.164959 -0.952028 
-0.204597 0.172713 -0.952523 -0.177472 0.180384 -0.952859 
-0.150923 0.187966 -0.953034 -0.124961 0.195454 -0.953050 
-0.099590 0.202843 -0.952908 -0.074796 0.210127 -0.952616 
-0.050564 0.217303 -0.952182 -0.026879 0.224365 -0.951616 
-0.003726 0.231309 -0.950926 0.018910 0.238130 -0.950120 
0.041045 0.244824 -0.949207 0.062692 0.251386 -0.948195 
0.083868 0.257811 -0.947093 0.104587 0.264095 -0.945908 
0.124865 0.270232 -0.944651 0.144716 0.276219 -0.943329 
0.164156 0.282050 -0.941951 0.183203 0.287717 -0.940524 
0.201879 0.293202 -0.939054 0.220207 0.298491 -0.937549 
0.238210 0.303567 -0.936013 0.255909 0.308416 -0.934455 
0.273328 0.313020 -0.932878 0.290489 0.317364 -0.931291 
0.307414 0.321433 -0.929700 0.324125 0.325210 -0.928110 
0.340647 0.328679 -0.926528 0.357000 0.331826 -0.924960 
0.373208 0.334633 -0.923413 0.389292 0.337085 -0.921893 
0.405270 0.339166 -0.920405 0.421154 0.340856 -0.918958 
0.436957 0.342137 -0.917556 0.452692 0.342992 -0.916206 
0.468371 0.343403 -0.914915 0.484007 0.343350 -0.913688 
0.499613 0.342817 -0.912533 0.515201 0.341784 -0.911455 
0.530783 0.340235 -0.910461 0.546373 0.338150 -0.909557 
0.561984 0.335511 -0.908750 0.577626 0.332301 -0.908045 
0.593314 0.328502 -0.907449 0.609051 0.324119 -0.906957 
0.624839 0.319163 -0.906561 0.640680 0.313649 -0.906252 
[...]
POINT_DATA 8281
SCALARS scalars float
LOOKUP_TABLE default
0.000000 0.000000 0.000000 0.000000 0.000000 0.000000 
0.000000 0.000000 0.000000 0.000000 0.000000 0.000000 
0.000000 0.000000 0.000000 0.000000 0.000000 0.000000 
0.000000 0.000000 0.000000 0.000000 0.000000 0.000000 
0.000000 0.000000 0.000000 0.000000 0.000000 0.000000 
0.000000 0.000000 0.000000 0.000000 0.000000 0.000000 
0.000000 0.000000 0.000000 0.000000 0.000000 0.000000 
0.000000 0.000000 0.000000 0.000000 0.000000 0.000000 
0.000000 0.000000 0.000000 0.000000 0.000000 0.000000 
0.000000 0.000000 0.000000 0.000000 0.000000 0.000000 
0.000000 0.000000 0.000000 0.000000 0.000000 0.000000 
0.000000 0.000000 0.000000 0.000000 0.000000 0.000000 
0.000000 0.000000 0.000000 0.000000 0.000000 0.000000 
0.000000 0.000000 0.000000 0.000000 0.000000 0.000000 
0.000000 0.000000 0.000000 0.000000 0.000000 0.000000 
0.000000 0.000000 -0.004553 -0.004707 -0.006088 -0.008406 
-0.011362 -0.014654 -0.017971 -0.020992 -0.023384 -0.024805 
-0.024895 -0.023284 -0.020979 -0.025187 -0.027887 -0.029097 
-0.028841 -0.027148 -0.024056 -0.019612 -0.013871 -0.006902 
0.001216 0.010386 0.020495 0.029654 0.033778 0.036429 
0.037539 0.037043 0.034880 0.030994 0.025336 0.017861 
0.008531 -0.002686 -0.015814 -0.030867 -0.063499 -0.121348 
-0.184717 -0.253772 -0.328586 -0.409118 -0.495171 -0.586359 
-0.682068 -0.781423 -0.883251 -0.986071 -1.088082 -1.194709 
-1.305767 -1.414975 -1.520437 -1.619992 -1.711291 -1.791902 
-1.859445 -1.911749 -1.947015 -1.963969 -1.961979 -1.941134 
-1.826420 -1.682956 -1.545663 -1.415634 -1.293547 -1.179742 
-1.074288 -0.977052 -0.887753 -0.806007 -0.731371 -0.663367 
-0.601506 -0.513488 -0.428993 -0.352240 -0.281963 -0.217030 
-0.156426 -0.099235 -0.044621 0.008186 0.059899 0.111191 
0.162702 0.000000 0.000000 0.000560 0.001296 0.001004 
-0.000039 -0.001549 -0.003237 -0.004808 -0.005957 -0.006369 
-0.005720 -0.003671 0.000130 0.004653 0.002652 0.002103 
0.002990 0.005293 0.008987 0.014039 0.020412 0.028057 
0.036922 0.046940 0.058036 0.070119 0.080591 0.084165 
0.086193 0.086604 0.085331 0.082311 0.077481 0.070787 
0.062176 0.051600 0.039015 0.024385 0.007680 -0.025688 
-0.082797 -0.145307 -0.213383 -0.287114 -0.366479 -0.451320 
-0.541305 -0.635893 -0.734300 -0.835467 -0.938038 -1.040352 
-1.145075 -1.252423 -1.358298 -1.460948 -1.558378 -1.648413 
-1.728787 -1.797267 -1.851786 -1.890594 -1.912395 -1.916464 
-1.902718 -1.798029 -1.664430 -1.535689 -1.412933 -1.296918 
-1.188087 -1.086628 -0.992530 -0.905628 -0.825654 -0.752264 
-0.685071 -0.623666 -0.532792 -0.445109 -0.365343 -0.292198 
-0.224511 -0.161236 -0.101423 -0.044208 0.011207 0.065566 
0.119569 0.173881 0.000000 0.000000 0.004729 0.006519 
0.007489 0.007905 0.008033 0.008146 0.008522 0.009446 
0.011216 0.014134 0.018516 0.024691 0.031582 0.031777 
0.033357 0.036308 0.040614 0.046253 0.053197 0.061417 
0.070873 0.081522 0.093314 0.106188 0.120076 0.131717 
0.134712 0.136090 0.135781 0.133716 0.129830 0.124060 
0.116346 0.106628 0.094853 0.080969 0.064927 0.046685 
0.012596 -0.043926 -0.105737 -0.173005 -0.245826 -0.324200 
-0.408002 -0.496948 -0.590564 -0.688148 -0.788743 -0.891110 
-0.993719 -1.096915 -1.201262 -1.304503 -1.405019 -1.500957 
-1.590290 -1.670898 -1.740667 -1.797620 -1.840042 -1.866617 
-1.876529 -1.869546 -1.773916 -1.649141 -1.528088 -1.411907 
-1.301414 -1.197138 -1.099365 -1.008184 -0.923536 -0.845248 
-0.773065 -0.706681 -0.645757 -0.552140 -0.461356 -0.378633 
-0.302648 -0.232209 -0.166242 -0.103768 -0.043893 0.014211 
0.071314 0.128144 0.185396 0.000000 0.000000 0.008085 
0.011079 0.013473 0.015514 0.017454 0.019546 0.022049 
0.025229 0.029358 0.034718 0.041602 0.050309 0.059694 
0.062064 0.065743 0.070719 0.076977 0.084500 0.093265 
0.103248 0.114419 0.126743 0.140183 0.154693 0.170225 
0.182895 0.185282 0.185983 0.184930 0.182055 0.177293 
0.170580 0.161854 0.151052 0.138116 0.122985 0.105605 
0.085922 0.051119 -0.004959 -0.066222 -0.132836 -0.204907 
-0.282451 -0.365374 -0.453435 -0.546217 -0.643095 -0.743203 
-0.845412 -0.948311 -1.050314 -1.152275 -1.253489 -1.352451 
-1.447434 -1.536542 -1.617775 -1.689126 -1.748689 -1.794779 
-1.826054 -1.841618 -1.841103 -1.753682 -1.636811 -1.522676 
-1.412441 -1.306971 -1.206864 -1.112486 -1.024017 -0.941484 
-0.864797 -0.793781 -0.728200 -0.667779 -0.571533 -0.477741 
-0.392121 -0.313329 -0.240150 -0.171479 -0.106313 -0.043727 
0.017132 0.077066 0.136829 0.197145 0.000000 0.000000 
0.010780 0.015111 0.019070 0.022887 0.026794 0.031022 
0.035811 0.041402 0.048044 0.055995 0.065517 0.076887 
0.088863 0.093380 0.099120 0.106073 0.114228 0.123570 
0.134081 0.145743 0.158531 0.172422 0.187388 0.203398 
0.220417 0.233986 0.235736 0.235734 0.233913 0.230209 
0.224558 0.216897 0.207163 0.195292 0.181223 0.164890 
0.146233 0.125189 0.089672 0.033905 -0.026947 -0.093052 
-0.164521 -0.241386 -0.323577 -0.410894 -0.502971 -0.599253 
-0.698959 -0.801056 -0.904247 -1.005350 -1.105458 -1.205165 
-1.303067 -1.397551 -1.486830 -1.569014 -1.642183 -1.704492 
-1.754279 -1.790179 -1.811221 -1.816910 -1.736952 -1.627174 
-1.519271 -1.414419 -1.313519 -1.217227 -1.125979 -1.040028 
-0.959477 -0.884309 -0.814419 -0.749633 -0.689731 -0.590971 
-0.494266 -0.405816 -0.324257 -0.248353 -0.176976 -0.109095 
-0.043759 0.019914 0.082753 0.145543 0.209033 0.000000 
0.000000 0.012978 0.018763 0.024412 0.030134 0.036139 
0.042638 0.049845 0.057978 0.067260 0.077918 0.090189 
0.104319 0.118955 0.125581 0.133337 0.142216 0.152207 
0.163298 0.175477 0.188730 0.203040 0.218391 0.234764 
0.252141 0.270503 0.284845 0.285931 0.285198 0.282586 
0.278034 0.271482 0.262866 0.252127 0.239199 0.224020 
0.206522 0.186638 0.164300 0.128065 0.072487 0.011917 
-0.053813 -0.124816 -0.201140 -0.282738 -0.369442 -0.460936 
-0.556727 -0.656110 -0.758145 -0.861636 -0.962093 -1.060807 
-1.159452 -1.256713 -1.351076 -1.440855 -1.524252 -1.599424 
-1.664579 -1.718072 -1.758514 -1.784865 -1.796517 -1.723368 
-1.619969 -1.517692 -1.417719 -1.320984 -1.228186 -1.139823 
-1.056211 -0.977517 -0.903791 -0.834986 -0.770984 -0.711616 
-0.610455 -0.510935 -0.419721 -0.335440 -0.256834 -0.182754 
-0.112144 -0.044026 0.022508 0.088316 0.154211 0.220970 
0.000000 0.000000 0.014862 0.022199 0.029640 0.037374 
0.045587 0.054465 0.064197 0.074973 0.086989 0.100442 
0.115538 0.132491 0.149825 0.158516 0.168237 0.178982 
0.190742 0.203510 0.217277 0.232032 0.247768 0.264472 
0.282138 0.300757 0.320321 0.335323 0.335717 0.334230 
0.330806 0.325389 0.317922 0.308347 0.296603 0.282628 
0.266358 0.247725 0.226658 0.203084 0.166123 0.110621 
0.050215 -0.015261 -0.085926 -0.161838 -0.242969 -0.329185 
-0.420211 -0.515611 -0.614749 -0.716771 -0.820577 -0.920610 
-1.018322 -1.116279 -1.213249 -1.307805 -1.398349 -1.483164 
-1.560479 -1.628543 -1.685728 -1.730620 -1.762116 -1.779503 
-1.712587 -1.614942 -1.517758 -1.422219 -1.329284 -1.239694 
-1.153994 -1.072557 -0.995606 -0.923248 -0.855488 -0.792259 
-0.733437 -0.629984 -0.527745 -0.433838 -0.346881 -0.265601 
-0.188827 -0.115481 -0.044560 0.024873 0.093702 0.162768 
0.232877 0.000000 0.000000 0.016627 0.025592 0.034907 
0.044735 0.055239 0.066577 0.078911 0.092402 0.107215 
0.123516 0.141479 0.161284 0.181322 0.192025 0.203651 
0.216197 0.229657 0.244024 0.259295 0.275465 0.292529 
0.310485 0.329332 0.349071 0.369708 0.385260 0.384939 
0.382676 0.378422 0.372126 0.363735 0.353195 0.340449 
0.325436 0.308093 0.288351 0.266138 0.241378 0.203684 
0.148155 0.087803 0.022468 -0.047975 -0.123593 -0.204377 
-0.290219 -0.380886 -0.475989 -0.574960 -0.677020 -0.781159 
-0.880957 -0.977999 -1.075582 -1.172549 -1.267550 -1.359068 
-1.445460 -1.525012 -1.596017 -1.656856 -1.706094 -1.742569 
-1.765473 -1.704283 -1.611849 -1.519290 -1.427793 -1.338337 
-1.251698 -1.168463 -1.089053 -1.013741 -0.942683 -0.875932 
-0.813464 -0.755196 -0.649558 -0.544693 -0.448163 -0.358579 
-0.274655 -0.195202 -0.119119 -0.045379 0.026980 0.098872 
0.171163 0.244688 0.000000 0.000000 0.018481 0.029130 
0.040375 0.052356 0.065205 0.079055 0.094037 0.110281 
0.127920 0.147087 0.167922 0.190572 0.213287 0.225940 
0.239406 0.253681 0.268764 0.284651 0.301341 0.318834 
0.337131 0.356237 0.376158 0.396904 0.418490 0.434493 
0.433435 0.430378 0.425279 0.418093 0.408771 0.397265 
0.383520 0.367479 0.349080 0.328255 0.304930 0.279028 
0.240591 0.184941 0.124546 0.059248 -0.011080 -0.086514 
-0.167060 -0.252636 -0.343043 -0.437941 -0.536818 -0.638967 
-0.743461 -0.843188 -0.939834 -1.037302 -1.134497 -1.230143 
-1.322795 -1.410873 -1.492721 -1.566666 -1.631099 -1.684565 
-1.725849 -1.754055 -1.698148 -1.610453 -1.522112 -1.434314 
-1.348057 -1.264143 -1.183197 -1.105682 -1.031916 -0.962096 
-0.896320 -0.834603 -0.776896 -0.669172 -0.561771 -0.462687 
-0.370525 -0.283990 -0.201877 -0.123062 -0.046495 0.028811 
0.103796 0.179355 0.256348 0.000000 0.000000 0.020643 
0.033008 0.046216 0.060378 0.075599 0.091982 0.109625 
0.128626 0.149084 0.171099 0.194775 0.220222 0.245552 
0.260086 0.275318 0.291246 0.307871 0.325193 0.343214 
0.361939 0.381374 0.401531 0.422421 0.444065 0.466487 
0.482849 0.481037 0.477172 0.471216 0.463132 0.452877 
0.440406 0.425669 0.408612 0.389175 0.367290 0.342885 
0.315880 0.276693 0.220838 0.160312 0.094959 0.024649 
-0.050700 -0.131109 -0.216518 -0.306760 -0.401537 -0.500392 
-0.602681 -0.707554 -0.807345 -0.903823 -1.001381 -1.098988 
-1.195430 -1.289328 -1.379164 -1.463329 -1.540184 -1.608129 
-1.665693 -1.711608 -1.744900 -1.693886 -1.610523 -1.526050 
-1.441656 -1.358352 -1.276967 -1.198158 -1.122423 -1.050120 
-0.981486 -0.916655 -0.855679 -0.798540 -0.688821 -0.578968 
-0.477394 -0.382705 -0.293593 -0.208839 -0.127302 -0.047907 
0.030359 0.108459 0.187317 0.267819 0.000000 0.000000 
0.023343 0.037429 0.052605 0.068951 0.086541 0.105445 
0.125728 0.147455 0.170688 0.195493 0.221937 0.250095 
0.277944 0.294281 0.311198 0.328696 0.346777 0.365445 
0.384707 0.404571 0.425050 0.446160 0.467922 0.490361 
0.513511 0.530150 0.527568 0.522884 0.516066 0.507081 
0.495894 0.482463 0.466744 0.448685 0.428229 0.405310 
0.379855 0.351784 0.311842 0.255709 0.194974 0.129482 
0.059105 -0.016249 -0.096612 -0.181945 -0.272109 -0.366844 
-0.465743 -0.568222 -0.673501 -0.773468 -0.869956 -0.967765 
-1.065921 -1.163268 -1.258485 -1.350112 -1.436584 -1.516291 
-1.587647 -1.649161 -1.699522 -1.737682 -1.691217 -1.611839 
-1.530934 -1.449691 -1.369131 -1.290106 -1.213302 -1.139249 
-1.068340 -1.000846 -0.936936 -0.876692 -0.820128 -0.708497 
-0.596269 -0.492267 -0.395096 -0.303443 -0.216072 -0.131824 
-0.049603 0.031628 0.112859 0.195039 0.279079 0.000000 
0.000000 0.026813 0.042605 0.059727 0.078228 0.098151 
0.119531 0.142398 0.166782 0.192709 0.220207 0.249308 
0.280050 0.310282 0.328336 0.346850 0.365827 0.385273 
0.405196 0.425606 0.446516 0.467944 0.489913 0.512449 
0.535587 0.559369 0.576208 0.572846 0.567335 0.559651 
0.549768 0.537654 0.523274 0.506586 0.487544 0.466090 
0.442163 0.415690 0.386589 0.345888 0.289415 0.228404 
0.162703 0.092182 0.016745 -0.063653 -0.148990 -0.239155 
-0.333922 -0.432927 -0.535644 -0.641356 -0.741588 -0.838223 
-0.936404 -1.035205 -1.133525 -1.230099 -1.323516 -1.412255 
-1.494735 -1.569378 -1.634680 -1.689291 -1.732095 -1.689877 
-1.614190 -1.536599 -1.458291 -1.380299 -1.303493 -1.228584 
-1.156130 -1.086557 -1.020165 -0.957156 -0.897639 -0.841658 
-0.728188 -0.613655 -0.507280 -0.407672 -0.313511 -0.223547 
-0.136604 -0.051565 0.032632 0.117003 0.202519 0.290119 
0.000000 0.000000 0.029355 0.046875 0.065919 0.086508 
0.108653 0.132359 0.157626 0.184451 0.212829 0.242757 
0.274234 0.307267 0.339599 0.359177 0.379109 0.399399 
0.420056 0.441088 0.462510 0.484339 0.506597 0.529311 
0.552514 0.576246 0.600556 0.617514 0.613347 0.606990 
0.598427 0.587635 0.574590 0.559262 0.541613 0.521601 
0.499172 0.474265 0.446810 0.416724 0.375284 0.318445 
0.257134 0.191203 0.120519 0.044983 -0.035461 -0.120808 
-0.210968 -0.305749 -0.404827 -0.507725 -0.613787 -0.714234 
-0.810988 -0.909487 -1.008852 -1.108034 -1.205819 -1.300844 
-1.391632 -1.476629 -1.554268 -1.623038 -1.681553 -1.728636 
-1.690276 -1.617920 -1.543325 -1.467676 -1.392013 -1.317222 
-1.244033 -1.173032 -1.104669 -1.039274 -0.977073 -0.918205 
-0.862733 -0.747406 -0.630546 -0.521769 -0.419689 -0.322981 
-0.230389 -0.140717 -0.052833 0.034349 0.121865 0.210711 
0.301844 0.000000 0.000000 0.021607 0.041170 0.062196 
0.084702 0.108697 0.134186 0.161167 0.189636 0.219587 
0.251020 0.283935 0.318341 0.351927 0.372369 0.393142 
0.414244 0.435679 0.457451 0.479570 0.502048 0.524905 
0.548164 0.571856 0.596019 0.620699 0.637636 0.632567 
0.625269 0.615733 0.603949 0.589900 0.573564 0.554913 
0.533909 0.510507 0.484652 0.456276 0.425305 0.383230 
0.326123 0.264645 0.198649 0.128006 0.052610 -0.027602 
-0.112636 -0.202426 -0.296804 -0.395483 -0.498030 -0.603840 
-0.703866 -0.800070 -0.898154 -0.997292 -1.096489 -1.194587 
-1.290277 -1.382127 -1.468623 -1.548218 -1.619401 -1.680769 
-1.731100 -1.695609 -1.625677 -1.553248 -1.479500 -1.405472 
-1.332055 -1.259995 -1.189891 -1.122213 -1.057310 -0.995427 
-0.936721 -0.881273 -0.763644 -0.644012 -0.532391 -0.427418 
-0.327778 -0.232219 -0.139544 -0.048615 0.041659 0.132325 
0.224386 0.318807 0.000000 0.000000 0.015361 0.036849 
0.059732 0.084024 0.109733 0.136862 0.165406 0.195363 
0.226729 0.259501 0.293685 0.329292 0.363974 0.385214 
0.406762 0.428609 0.450755 0.473199 0.495946 0.519006 
0.542393 0.566128 0.590240 0.614763 0.639745 0.656611 
0.650645 0.642415 0.631922 0.619164 0.604133 0.586816 
0.567190 0.545225 0.520881 0.494109 0.464847 0.433022 
0.390317 0.332899 0.271204 0.205088 0.134420 0.059092 
-0.020966 -0.105774 -0.195283 -0.289349 -0.387719 -0.489997 
-0.595629 -0.695326 -0.791084 -0.888843 -0.987824 -1.087081 
-1.185507 -1.281842 -1.374699 -1.462596 -1.544009 -1.617430 
-1.681440 -1.734777 -1.701905 -1.634171 -1.563709 -1.491689 
-1.419147 -1.346982 -1.275948 -1.206659 -1.139599 -1.075136 
-1.013530 -0.954954 -0.899505 -0.779636 -0.657303 -0.542908 
-0.435106 -0.332598 -0.234133 -0.138517 -0.044603 0.048704 
0.142459 0.237676 0.335324 0.000000 0.000000 0.010612 
0.033903 0.058514 0.084457 0.111739 0.140360 0.170317 
0.201606 0.234223 0.268170 0.303454 0.340091 0.375709 
0.397676 0.419925 0.442445 0.465228 0.488270 0.511572 
0.535138 0.558982 0.583121 0.607580 0.632394 0.657606 
0.674355 0.667504 0.658359 0.646932 0.633227 0.617245 
0.598979 0.578414 0.555525 0.530278 0.502628 0.472518 
0.439878 0.396551 0.338792 0.276842 0.210558 0.139812 
0.064491 -0.015483 -0.100140 -0.189447 -0.283284 -0.381426 
-0.483514 -0.589036 -0.688491 -0.783900 -0.881418 -0.980308 
-1.079669 -1.178441 -1.275409 -1.369224 -1.458438 -1.541547 
-1.617047 -1.683504 -1.739624 -1.709135 -1.643384 -1.574700 
-1.504239 -1.433040 -1.362003 -1.291891 -1.223331 -1.156819 
-1.092738 -1.031362 -0.972879 -0.917399 -0.795384 -0.670460 
-0.553396 -0.442871 -0.337596 -0.236328 -0.137871 -0.041076 
0.055162 0.151903 0.250170 0.350939 0.000000 0.000000 
0.007342 0.032311 0.058519 0.085976 0.114688 0.144653 
0.175868 0.208331 0.242039 0.276995 0.313212 0.350709 
0.387104 0.409720 0.432593 0.455705 0.479045 0.502605 
0.526381 0.550377 0.574599 0.599065 0.623796 0.648827 
0.674199 0.690784 0.683067 0.673033 0.660702 0.646085 
0.629190 0.610016 0.588554 0.564786 0.538680 0.510197 
0.479283 0.445872 0.401941 0.343818 0.281583 0.215097 
0.144228 0.068861 -0.011087 -0.095658 -0.184833 -0.278515 
-0.376502 -0.478471 -0.583949 -0.683241 -0.778392 -0.875750 
-0.974614 -1.074125 -1.173264 -1.270856 -1.365590 -1.456048 
-1.540742 -1.618175 -1.686901 -1.745593 -1.717267 -1.653296 
-1.586204 -1.517141 -1.447141 -1.377109 -1.307815 -1.239894 
-1.173857 -1.110095 -1.048898 -0.990466 -0.934919 -0.810881 
-0.683514 -0.563926 -0.450820 -0.342921 -0.238992 -0.137836 
-0.038303 0.060719 0.160300 0.261469 0.365207 0.000000 
0.000000 0.005528 0.032046 0.059717 0.088550 0.118546 
0.149706 0.182026 0.215504 0.250142 0.285945 0.322929 
0.361119 0.398135 0.421315 0.444724 0.468343 0.492155 
0.516147 0.540313 0.564653 0.589172 0.613883 0.638809 
0.663980 0.689438 0.705816 0.697260 0.686371 0.673173 
0.657686 0.639923 0.619890 0.597581 0.572983 0.546070 
0.516805 0.485137 0.451003 0.406490 0.347992 0.285453 
0.218737 0.147710 0.072257 -0.007715 -0.092256 -0.181362 
-0.274953 -0.372853 -0.474769 -0.580262 -0.679467 -0.774447 
-0.871721 -0.970622 -1.070328 -1.169856 -1.268071 -1.363692 
-1.455328 -1.541510 -1.620743 -1.691571 -1.752641 -1.726266 
-1.663880 -1.598203 -1.530378 -1.461436 -1.392285 -1.323702 
-1.256329 -1.190687 -1.127179 -1.066105 -1.007674 -0.952019 
-0.826116 -0.696490 -0.574561 -0.459055 -0.348713 -0.242303 
-0.138632 -0.036545 0.065075 0.167305 0.271181 0.377694 
0.000000 0.000000 0.005135 0.033072 0.062071 0.092138 
0.123274 0.155479 0.188751 0.223090 0.258499 0.294988 
0.332576 0.371294 0.408776 0.432429 0.456284 0.480317 
0.504508 0.528841 0.553307 0.577902 0.602630 0.627503 
0.652540 0.677773 0.703243 0.719372 0.710012 0.698306 
0.684286 0.667979 0.649401 0.628562 0.605463 0.580093 
0.552429 0.522437 0.490070 0.455266 0.410202 0.351324 
0.288472 0.221508 0.150299 0.074725 -0.005311 -0.089869 
-0.178959 -0.272517 -0.370391 -0.472312 -0.577877 -0.677066 
-0.771957 -0.869220 -0.968220 -1.068166 -1.168111 -1.266949 
-1.363432 -1.456191 -1.543771 -1.624682 -1.697458 -1.760720 
-1.736096 -1.675105 -1.610670 -1.543925 -1.475901 -1.407507 
-1.339525 -1.272605 -1.207276 -1.143951 -1.082939 -1.024459 
-0.968649 -0.841066 -0.709405 -0.585355 -0.467668 -0.355101 
-0.246431 -0.140466 -0.036050 0.067939 0.172587 0.278936 
0.387985 0.000000 0.000000 0.006119 0.035346 0.065537 
0.096697 0.128829 0.161931 0.196003 0.231048 0.267072 
0.304089 0.342123 0.381209 0.419005 0.443034 0.467238 
0.491587 0.516060 0.540637 0.565306 0.590062 0.614908 
0.639853 0.664918 0.690133 0.715538 0.731376 0.721251 
0.708775 0.693986 0.676913 0.657578 0.635996 0.612169 
0.586089 0.557737 0.527080 0.494073 0.458656 0.413077 
0.353824 0.290656 0.223436 0.152028 0.076310 -0.003823 
-0.088438 -0.177557 -0.271134 -0.369034 -0.471015 -0.576703 
-0.675944 -0.770825 -0.868148 -0.967307 -1.067541 -1.167929 
-1.267397 -1.364721 -1.458553 -1.547451 -1.629927 -1.704504 
-1.769783 -1.746717 -1.686937 -1.623572 -1.557752 -1.490504 
-1.422742 -1.355249 -1.288684 -1.223583 -1.160367 -1.099352 
-1.040764 -0.984750 -0.855706 -0.722267 -0.596353 -0.476741 
-0.362205 -0.251532 -0.143533 -0.037051 0.069041 0.175834 
0.284381 0.395687 0.000000 0.000000 0.008430 0.038815 
0.070062 0.102176 0.135160 0.169013 0.203737 0.239338 
0.275825 0.313216 0.351540 0.390839 0.428801 0.453104 
0.477553 0.502115 0.526766 0.551484 0.576257 0.601076 
0.625944 0.650869 0.675873 0.700985 0.726248 0.741754 
0.730910 0.717716 0.702215 0.684438 0.664413 0.642153 
0.617666 0.590944 0.561971 0.530715 0.497133 0.461165 
0.415112 0.355498 0.292021 0.224544 0.152929 0.077049 
-0.003205 -0.087909 -0.177096 -0.270734 -0.368708 -0.470799 
-0.576657 -0.676014 -0.770959 -0.868413 -0.967791 -1.068358 
-1.169220 -1.269327 -1.367476 -1.462337 -1.552479 -1.636414 
-1.712656 -1.779783 -1.758084 -1.699335 -1.636872 -1.571820 
-1.505207 -1.437948 -1.370831 -1.304520 -1.239558 -1.176371 
-1.115284 -1.056529 -1.000258 -0.869999 -0.735078 -0.607592 
-0.486347 -0.370134 -0.257750 -0.148013 -0.039765 0.068125 
0.176754 0.287185 0.400430 0.000000 0.000000 0.012007 
0.043420 0.075589 0.108519 0.142214 0.176674 0.211905 
0.247915 0.284717 0.322334 0.360800 0.400162 0.438145 
0.462614 0.487199 0.511866 0.536587 0.561339 0.586109 
0.610888 0.635678 0.660488 0.685339 0.710262 0.735302 
0.750437 0.738925 0.725071 0.708920 0.690508 0.669860 
0.646996 0.621921 0.594631 0.565109 0.533324 0.499234 
0.462779 0.416299 0.356347 0.292576 0.224848 0.153025 
0.076975 -0.003416 -0.088234 -0.177520 -0.271257 -0.369347 
-0.471591 -0.577664 -0.677197 -0.772280 -0.869932 -0.969589 
-1.070536 -1.171903 -1.272660 -1.371622 -1.467473 -1.558790 
-1.644083 -1.721857 -1.790668 -1.770151 -1.712253 -1.650523 