# vtk DataFile Version 1.0
vtk output
ASCII
DATASET POLYDATA
POINTS 8281 float
-0.895820 0.022637 -0.913420 -0.866877 0.036813 -0.906514 
-0.837291 0.051528 -0.900807 -0.807131 0.066697 -0.896186 
-0.776468 0.082233 -0.892540 -0.745372 0.098049 -0.889755 
-0.713914 0.114058 -0.887721 -0.682164 0.130174 -0.886325 
-0.650193 0.146311 -0.885454 -0.618071 0.162381 -0.884997 
-0.585868 0.178298 -0.884840 -0.553656 0.193976 -0.884873 
-0.521503 0.209328 -0.884982 -0.489482 0.224267 -0.885055 
-0.457650 0.238727 -0.885014 -0.426039 0.252689 -0.884863 
-0.394674 0.266145 -0.884623 -0.363581 0.279086 -0.884314 
-0.332786 0.291504 -0.883954 -0.302313 0.303389 -0.883564 
-0.272190 0.314732 -0.883164 -0.242441 0.325524 -0.882773 
-0.213092 0.335757 -0.882411 -0.184169 0.345422 -0.882098 
-0.155698 0.354509 -0.881854 -0.127704 0.363010 -0.881698 
-0.100212 0.370916 -0.881650 -0.073237 0.378225 -0.881717 
-0.046772 0.384946 -0.881884 -0.020805 0.391092 -0.882135 
0.004671 0.396674 -0.882453 0.029666 0.401702 -0.882821 
0.054190 0.406189 -0.883221 0.078252 0.410145 -0.883637 
0.101863 0.413582 -0.884053 0.125030 0.416511 -0.884450 
0.147764 0.418943 -0.884813 0.170074 0.420890 -0.885125 
0.191969 0.422364 -0.885367 0.213460 0.423375 -0.885525 
0.234555 0.423936 -0.885594 0.255267 0.424062 -0.885586 
0.275605 0.423768 -0.885513 0.295580 0.423068 -0.885388 
0.315204 0.421978 -0.885223 0.334486 0.420513 -0.885032 
0.353439 0.418686 -0.884825 0.372072 0.416514 -0.884617 
0.390396 0.414010 -0.884419 0.408422 0.411190 -0.884245 
0.426161 0.408068 -0.884105 0.443624 0.404659 -0.884014 
0.460821 0.400978 -0.883983 0.477763 0.397028 -0.884019 
0.494459 0.392805 -0.884123 0.510921 0.388305 -0.884298 
0.527157 0.383521 -0.884545 0.543177 0.378451 -0.884865 
0.558993 0.373088 -0.885261 0.574613 0.367428 -0.885734 
0.590047 0.361466 -0.886285 0.605307 0.355198 -0.886917 
0.620401 0.348619 -0.887631 0.635339 0.341724 -0.888429 
0.650132 0.334508 -0.889313 0.664789 0.326967 -0.890281 
0.679315 0.319100 -0.891309 0.693713 0.310907 -0.892359 
0.707985 0.302390 -0.893392 0.722133 0.293549 -0.894368 
0.736161 0.284386 -0.895251 0.750070 0.274901 -0.896000 
0.763863 0.265095 -0.896577 0.777542 0.254968 -0.896944 
0.791111 0.244523 -0.897062 0.804571 0.233760 -0.896892 
0.817924 0.222679 -0.896396 0.831175 0.211281 -0.895535 
0.844316 0.199577 -0.894295 0.857299 0.187627 -0.892816 
0.870056 0.175515 -0.891293 0.882520 0.163321 -0.889925 
0.894622 0.151129 -0.888909 0.906296 0.139020 -0.888443 
0.917474 0.127076 -0.888722 0.928089 0.115379 -0.889946 
0.938074 0.104012 -0.892311 0.947360 0.093057 -0.896014 
0.955880 0.082595 -0.901253 0.963567 0.072709 -0.908225 
0.970354 0.063480 -0.917127 -0.886070 0.028966 -0.900136 
-0.859023 0.041860 -0.894287 -0.831050 0.055565 -0.889411 
-0.802243 0.069970 -0.885420 -0.772694 0.084960 -0.882226 
-0.742497 0.100420 -0.879739 -0.711743 0.116237 -0.877873 
-0.680525 0.132298 -0.876537 -0.648935 0.148487 -0.875645 
-0.617066 0.164692 -0.875107 -0.585011 0.180798 -0.874836 
-0.552860 0.196691 -0.874742 -0.520708 0.212257 -0.874738 
-0.488646 0.227383 -0.874735 -0.456752 0.241982 -0.874670 
-0.425061 0.256040 -0.874544 -0.393604 0.269554 -0.874370 
-0.362410 0.282523 -0.874160 -0.331509 0.294943 -0.873926 
-0.300931 0.306813 -0.873680 -0.270707 0.318130 -0.873436 
-0.240865 0.328892 -0.873204 -0.211435 0.339096 -0.872997 
-0.182448 0.348740 -0.872828 -0.153933 0.357822 -0.872709 
-0.125920 0.366339 -0.872652 -0.098439 0.374289 -0.872670 
-0.071504 0.381672 -0.872765 -0.045106 0.388495 -0.872929 
-0.019229 0.394763 -0.873149 0.006139 0.400484 -0.873415 
0.031011 0.405663 -0.873713 0.055402 0.410307 -0.874034 
0.079324 0.414422 -0.874366 0.102792 0.418015 -0.874696 
0.125818 0.421092 -0.875013 0.148417 0.423660 -0.875306 
0.170601 0.425724 -0.875564 0.192385 0.427292 -0.875773 
0.213782 0.428370 -0.875924 0.234802 0.428969 -0.876014 
0.255455 0.429108 -0.876050 0.275748 0.428807 -0.876042 
0.295690 0.428083 -0.875998 0.315289 0.426956 -0.875926 
0.334553 0.425444 -0.875835 0.353490 0.423567 -0.875734 
0.372108 0.421342 -0.875632 0.390417 0.418790 -0.875536 
0.408423 0.415927 -0.875456 0.426135 0.412775 -0.875401 
0.443562 0.409350 -0.875378 0.460711 0.405672 -0.875396 
0.477594 0.401743 -0.875462 0.494223 0.397557 -0.875578 
0.510612 0.393105 -0.875749 0.526772 0.388380 -0.875977 
0.542719 0.383372 -0.876267 0.558463 0.378075 -0.876622 
0.574019 0.372479 -0.877046 0.589399 0.366577 -0.877543 
0.604617 0.360361 -0.878115 0.619684 0.353822 -0.878766 
0.634615 0.346954 -0.879501 0.649422 0.339746 -0.880322 
0.664117 0.332193 -0.881231 0.678703 0.324292 -0.882204 
0.693178 0.316048 -0.883205 0.707538 0.307462 -0.884196 
0.721782 0.298537 -0.885139 0.735907 0.289276 -0.885998 
0.749910 0.279683 -0.886734 0.763788 0.269759 -0.887312 
0.777540 0.259507 -0.887693 0.791163 0.248931 -0.887839 
0.804653 0.238033 -0.887715 0.818009 0.226815 -0.887282 
0.831228 0.215281 -0.886504 0.844302 0.203443 -0.885364 
0.857184 0.191376 -0.883988 0.869814 0.179179 -0.882554 
0.882133 0.166948 -0.881237 0.894080 0.154783 -0.880215 
0.905595 0.142781 -0.879666 0.916618 0.131041 -0.879767 
0.927089 0.119661 -0.880696 0.936947 0.108740 -0.882629 
0.946133 0.098374 -0.885744 0.954587 0.088663 -0.890218 
0.962248 0.079705 -0.896229 0.969056 0.071597 -0.903953 
-0.877333 0.034496 -0.885522 -0.851865 0.046383 -0.880609 
-0.825239 0.059292 -0.876474 -0.797566 0.073089 -0.873048 
-0.768956 0.087640 -0.870264 -0.739520 0.102810 -0.868054 
-0.709368 0.118465 -0.866350 -0.678611 0.134471 -0.865084 
-0.647359 0.150694 -0.864188 -0.615723 0.166998 -0.863594 
-0.583814 0.183251 -0.863233 -0.551742 0.199317 -0.863039 
-0.519618 0.215063 -0.862943 -0.487553 0.230353 -0.862876 
-0.455637 0.245089 -0.862790 -0.423911 0.259256 -0.862683 
-0.392409 0.272856 -0.862561 -0.361164 0.285892 -0.862430 
-0.330208 0.298364 -0.862296 -0.299575 0.310275 -0.862167 
-0.269297 0.321626 -0.862048 -0.239406 0.332419 -0.861944 
-0.209937 0.342655 -0.861864 -0.180922 0.352336 -0.861812 
-0.152393 0.361464 -0.861795 -0.124385 0.370041 -0.861820 
-0.096928 0.378067 -0.861892 -0.070040 0.385546 -0.862013 
-0.043707 0.392480 -0.862176 -0.017913 0.398873 -0.862376 
0.007360 0.404729 -0.862603 0.032127 0.410050 -0.862852 
0.056405 0.414840 -0.863115 0.080210 0.419102 -0.863384 
0.103559 0.422839 -0.863653 0.126468 0.426056 -0.863914 
0.148954 0.428755 -0.864161 0.171033 0.430940 -0.864385 
0.192721 0.432614 -0.864581 0.214036 0.433780 -0.864740 
0.234988 0.434450 -0.864861 0.255585 0.434644 -0.864949 
0.275833 0.434382 -0.865010 0.295739 0.433686 -0.865047 
0.315309 0.432575 -0.865068 0.334549 0.431071 -0.865076 
0.353466 0.429194 -0.865077 0.372067 0.426965 -0.865077 
0.390358 0.424404 -0.865080 0.408345 0.421533 -0.865092 
0.426035 0.418371 -0.865118 0.443434 0.414941 -0.865164 
0.460549 0.411260 -0.865234 0.477391 0.407334 -0.865333 
0.493975 0.403153 -0.865467 0.510315 0.398709 -0.865641 
0.526427 0.393992 -0.865861 0.542326 0.388993 -0.866130 
0.558025 0.383702 -0.866455 0.573541 0.378110 -0.866840 
0.588887 0.372208 -0.867291 0.604079 0.365987 -0.867812 
0.619132 0.359438 -0.868409 0.634060 0.352550 -0.869088 
0.648878 0.345316 -0.869852 0.663600 0.337726 -0.870706 
0.678227 0.329780 -0.871626 0.692753 0.321480 -0.872578 
0.707173 0.312830 -0.873526 0.721479 0.303833 -0.874435 
0.735667 0.294493 -0.875268 0.749731 0.284814 -0.875991 
0.763664 0.274797 -0.876567 0.777461 0.264447 -0.876962 
0.791115 0.253767 -0.877138 0.804622 0.242760 -0.877061 
0.817974 0.231430 -0.876696 0.831166 0.219779 -0.876006 
0.844188 0.207823 -0.874976 0.856994 0.195646 -0.873716 
0.869531 0.183358 -0.872386 0.881743 0.171071 -0.871141 
0.893573 0.158895 -0.870142 0.904967 0.146942 -0.869545 
0.915869 0.135321 -0.869509 0.926223 0.124145 -0.870193 
0.935974 0.113524 -0.871754 0.945066 0.103568 -0.874351 
0.953444 0.094390 -0.878141 0.961053 0.086098 -0.883283 
0.967835 0.078806 -0.889935 -0.869536 0.039291 -0.869685 
-0.845361 0.050421 -0.865595 -0.819841 0.062726 -0.862115 
-0.793103 0.076058 -0.859195 -0.765271 0.090268 -0.856783 
-0.736471 0.105209 -0.854830 -0.706828 0.120730 -0.853283 
-0.676468 0.136685 -0.852093 -0.645514 0.152925 -0.851209 
-0.614094 0.169301 -0.850579 -0.582331 0.185665 -0.850153 
-0.550351 0.201868 -0.849881 -0.518280 0.217762 -0.849711 
-0.486243 0.233200 -0.849592 -0.454342 0.248069 -0.849488 
-0.422622 0.262358 -0.849393 -0.391118 0.276069 -0.849310 
-0.359865 0.289207 -0.849239 -0.328898 0.301775 -0.849184 
-0.298252 0.313777 -0.849144 -0.267962 0.325215 -0.849122 
-0.238063 0.336093 -0.849120 -0.208591 0.346416 -0.849138 
-0.179579 0.356185 -0.849179 -0.151063 0.365406 -0.849244 
-0.123079 0.374080 -0.849334 -0.095660 0.382213 -0.849451 
-0.068824 0.389806 -0.849595 -0.042555 0.396862 -0.849762 
-0.016835 0.403382 -0.849949 0.008354 0.409369 -0.850152 
0.033031 0.414824 -0.850368 0.057215 0.419750 -0.850592 
0.080923 0.424149 -0.850820 0.104174 0.428022 -0.851050 
0.126987 0.431371 -0.851277 0.149380 0.434198 -0.851499 
0.171371 0.436505 -0.851710 0.192980 0.438295 -0.851907 
0.214223 0.439569 -0.852087 0.235114 0.440337 -0.852249 
0.255658 0.440621 -0.852394 0.275862 0.440440 -0.852526 
0.295730 0.439815 -0.852646 0.315268 0.438767 -0.852757 
0.334481 0.437317 -0.852862 0.353375 0.435486 -0.852962 
0.371955 0.433293 -0.853059 0.390227 0.430761 -0.853158 
0.408195 0.427909 -0.853258 0.425866 0.424759 -0.853364 
0.443246 0.421331 -0.853477 0.460338 0.417645 -0.853600 
0.477156 0.413705 -0.853737 0.493714 0.409503 -0.853895 
0.510028 0.405032 -0.854080 0.526114 0.400281 -0.854298 
0.541988 0.395242 -0.854556 0.557665 0.389908 -0.854860 
0.573160 0.384268 -0.855217 0.588491 0.378316 -0.855632 
0.603672 0.372041 -0.856112 0.618720 0.365435 -0.856663 
0.633649 0.358491 -0.857292 0.648477 0.351198 -0.858006 
0.663216 0.343550 -0.858807 0.677867 0.335545 -0.859676 
0.692423 0.327186 -0.860580 0.706876 0.318475 -0.861485 
[...]
POINT_DATA 8281
SCALARS scalars float
LOOKUP_TABLE default
0.000000 0.000000 0.000000 0.000000 0.000000 0.000000 
0.000000 0.000000 0.000000 0.000000 0.000000 0.000000 
0.000000 0.000000 0.000000 0.000000 0.000000 0.000000 
0.000000 0.000000 0.000000 0.000000 0.000000 0.000000 
0.000000 0.000000 0.000000 0.000000 0.000000 0.000000 
0.000000 0.000000 0.000000 0.000000 0.000000 0.000000 
0.000000 0.000000 0.000000 0.000000 0.000000 0.000000 
0.000000 0.000000 0.000000 0.000000 0.000000 0.000000 
0.000000 0.000000 0.000000 0.000000 0.000000 0.000000 
0.000000 0.000000 0.000000 0.000000 0.000000 0.000000 
0.000000 0.000000 0.000000 0.000000 0.000000 0.000000 
0.000000 0.000000 0.000000 0.000000 0.000000 0.000000 
0.000000 0.000000 0.000000 0.000000 0.000000 0.000000 
0.000000 0.000000 0.000000 0.000000 0.000000 0.000000 
0.000000 0.000000 0.000000 0.000000 0.000000 0.000000 
0.000000 0.000000 -1.320149 -0.564221 -0.278500 -0.222502 
-0.253239 -0.279505 -0.246803 -0.130756 0.070016 0.342899 
0.669852 1.032993 1.369230 1.398463 1.384099 1.336810 
1.263526 1.169081 1.057355 0.932137 0.797800 0.659855 
0.525354 0.403092 0.303532 0.241581 0.240564 0.301166 
0.421414 0.594139 0.808394 1.050986 1.307773 1.564579 
1.807654 2.023718 2.199667 2.322019 2.328250 2.196431 
2.003919 1.765073 1.493652 1.203445 0.908587 0.623580 
0.363041 0.141177 -0.029000 -0.136681 -0.174420 -0.147897 
-0.052689 0.112892 0.339214 0.613734 0.921938 1.248264 
1.576930 1.892674 2.181363 2.430503 2.629656 2.770756 
2.953969 3.123757 3.241969 3.312603 3.340132 3.328550 
3.280402 3.195832 3.071660 2.900452 2.669558 2.360069 
1.945700 1.120625 0.434895 -0.019158 -0.231963 -0.227154 
-0.091309 -0.017276 -0.384650 -1.960325 -6.488407 -18.610844 
-52.782772 0.000000 0.000000 -0.958972 -0.421452 -0.220808 
-0.172184 -0.175524 -0.174633 -0.139800 -0.058790 0.069376 
0.239350 0.443090 0.671857 0.885012 0.894475 0.875268 
0.833898 0.775188 0.702976 0.620616 0.531366 0.438702 
0.346558 0.259513 0.182906 0.122856 0.088948 0.094866 
0.137364 0.215214 0.324895 0.461002 0.616675 0.784015 
0.954403 1.118730 1.267517 1.390949 1.478841 1.487939 
1.406078 1.286996 1.140792 0.977231 0.805795 0.635621 
0.475353 0.332912 0.215208 0.127813 0.074619 0.057491 
0.080100 0.141182 0.235799 0.360326 0.509823 0.678189 
0.858368 1.042624 1.222862 1.391007 1.539398 1.661192 
1.750732 1.869260 1.981046 2.062535 2.116287 2.144949 
2.150706 2.134759 2.096842 2.034749 1.943867 1.816691 
1.642269 1.405593 0.877120 0.423689 0.103634 -0.079091 
-0.134584 -0.104558 -0.093197 -0.327537 -1.297370 -4.134341 
-11.781672 -33.080650 0.000000 0.000000 -0.715415 -0.323928 
-0.176581 -0.133114 -0.123538 -0.112193 -0.081844 -0.025720 
0.057022 0.164099 0.291743 0.435380 0.568385 0.565563 
0.544101 0.508145 0.461096 0.405900 0.345267 0.281846 
0.218361 0.157721 0.103099 0.057996 0.026273 0.014143 
0.028219 0.064176 0.121123 0.197116 0.289230 0.393636 
0.505687 0.619997 0.730516 0.830601 0.913095 0.970418 
0.973684 0.918653 0.841988 0.750838 0.652079 0.552164 
0.456946 0.371490 0.299865 0.244954 0.208276 0.189824 
0.187945 0.208625 0.247596 0.298319 0.360850 0.434616 
0.518311 0.609842 0.706342 0.804250 0.899473 0.987613 
1.064253 1.125247 1.213865 1.300632 1.368056 1.417793 
1.451444 1.470229 1.474692 1.464437 1.437876 1.391997 
1.322104 1.221542 1.081360 0.722131 0.404169 0.166160 
0.007224 -0.080315 -0.121055 -0.176478 -0.386218 -1.062834 
-2.938231 -7.892756 -21.428143 0.000000 0.000000 -0.550758 
-0.258017 -0.143872 -0.103589 -0.087953 -0.073431 -0.049201 
-0.011006 0.041975 0.108767 0.187393 0.275058 0.354042 
0.343129 0.320091 0.287848 0.248985 0.205864 0.160716 
0.115710 0.073003 0.034779 0.003280 -0.019174 -0.030153 
-0.025841 -0.004806 0.028649 0.073990 0.130161 0.195546 
0.267937 0.344498 0.421759 0.495612 0.561339 0.613679 
0.646923 0.642724 0.603109 0.552651 0.496614 0.439905 
0.386877 0.341131 0.305339 0.281074 0.268663 0.267067 
0.273773 0.284708 0.304110 0.326432 0.346635 0.367316 
0.390715 0.418552 0.451875 0.490936 0.535132 0.583012 
0.632366 0.680382 0.723874 0.796572 0.870904 0.932245 
0.981638 1.020019 1.048012 1.065769 1.072814 1.067925 
1.049005 1.012967 0.955590 0.871353 0.616006 0.383398 
0.200386 0.062726 -0.038395 -0.122631 -0.233350 -0.464833 
-1.024539 -2.391160 -5.767308 -14.570712 0.000000 0.000000 
-0.441550 -0.214424 -0.120355 -0.081804 -0.063479 -0.048928 
-0.030619 -0.005446 0.027421 0.067543 0.113636 0.163574 
0.205399 0.188932 0.164589 0.134721 0.101491 0.066919 
0.032908 0.001262 -0.026302 -0.048154 -0.062743 -0.068592 
-0.064281 -0.047789 -0.021486 0.010804 0.048919 0.092402 
0.140435 0.191772 0.244675 0.296869 0.345514 0.387203 
0.417999 0.433517 0.423100 0.393552 0.360866 0.329117 
0.301872 0.281993 0.271473 0.271278 0.281228 0.299884 
0.324461 0.350742 0.372995 0.391225 0.399838 0.397263 
0.387888 0.375824 0.364746 0.357707 0.356972 0.363872 
0.378718 0.400794 0.428427 0.459141 0.520931 0.587146 
0.644746 0.694276 0.736151 0.770543 0.797281 0.815781 
0.824987 0.823314 0.808599 0.778040 0.728109 0.540527 
0.365210 0.221688 0.103732 0.000819 -0.106347 -0.254726 
-0.517237 -1.043463 -2.159777 -4.646137 -10.616462 0.000000 
0.000000 -0.370632 -0.186206 -0.103964 -0.066270 -0.046911 
-0.033526 -0.020272 -0.004563 0.014434 0.036485 0.060532 
0.084650 0.100694 0.080361 0.055022 0.026783 -0.002397 
-0.030703 -0.056469 -0.078180 -0.094482 -0.104189 -0.106284 
-0.099924 -0.084428 -0.059159 -0.029258 0.002131 0.035191 
0.069901 0.105981 0.142814 0.179389 0.214238 0.245400 
0.270404 0.286277 0.289606 0.275347 0.253761 0.234673 
0.221377 0.216488 0.221781 0.238052 0.265005 0.301169 
0.343825 0.388951 0.431154 0.463600 0.480421 0.476939 
0.456386 0.424391 0.386285 0.346962 0.310718 0.281066 
0.260562 0.250681 0.251749 0.262960 0.282472 0.334455 
0.393403 0.447339 0.496341 0.540351 0.579116 0.612144 
0.638680 0.657682 0.667817 0.667437 0.654566 0.626856 
0.486027 0.351390 0.237841 0.138266 0.040968 -0.073982 
-0.241537 -0.524757 -1.042197 -2.031665 -4.017642 -8.317451 
0.000000 0.000000 -0.324431 -0.168066 -0.093018 -0.055842 
-0.036243 -0.024283 -0.015028 -0.006148 0.003190 0.012820 
0.021752 0.028115 0.026363 0.003414 -0.022488 -0.049341 
-0.075308 -0.098730 -0.118136 -0.132261 -0.140057 -0.140698 
-0.133588 -0.118360 -0.094881 -0.063589 -0.031617 -0.001322 
0.027762 0.055941 0.083315 0.109719 0.134661 0.157273 
0.176258 0.189866 0.195886 0.191673 0.176300 0.162336 
0.155087 0.157266 0.170773 0.196552 0.234485 0.283314 
0.340591 0.402648 0.464563 0.520136 0.561842 0.576732 
0.561872 0.526278 0.476403 0.418326 0.357656 0.299391 
0.247755 0.206031 0.176430 0.160008 0.156643 0.165095 
0.206767 0.257872 0.307313 0.354723 0.399581 0.441208 
0.478764 0.511252 0.537535 0.556346 0.566297 0.565879 
0.553442 0.446710 0.342542 0.252847 0.170439 0.083295 
-0.028618 -0.198912 -0.484756 -0.986175 -1.887645 -3.559609 
-6.843792 0.000000 0.000000 -0.292459 -0.156073 -0.086209 
-0.049665 -0.030216 -0.019526 -0.013241 -0.009200 -0.006584 
-0.005523 -0.006957 -0.012682 -0.026407 -0.050949 -0.076850 
-0.102200 -0.125281 -0.144589 -0.158845 -0.167013 -0.168307 
-0.162197 -0.148408 -0.126929 -0.098021 -0.062975 -0.030306 
-0.001506 0.024094 0.047043 0.067721 0.086304 0.102711 
0.116552 0.127084 0.133167 0.133247 0.125349 0.111576 
0.105836 0.110037 0.126403 0.156247 0.199847 0.256363 
0.323784 0.398910 0.477347 0.553508 0.620630 0.670776 
0.682968 0.656756 0.607712 0.542807 0.468546 0.390905 
0.315221 0.246057 0.187070 0.140898 0.109078 0.092021 
0.089037 0.119369 0.161548 0.205339 0.249968 0.294478 
0.337762 0.378600 0.415701 0.447738 0.473386 0.491343 
0.500340 0.499131 0.418718 0.338601 0.268713 0.202368 
0.128028 0.026546 -0.133479 -0.403553 -0.869360 -1.678652 
-3.103627 -5.700774 0.000000 0.000000 -0.267287 -0.147493 
-0.082565 -0.047119 -0.028073 -0.018370 -0.014158 -0.013445 
-0.015438 -0.020221 -0.028636 -0.042305 -0.063594 -0.088810 
-0.114048 -0.137540 -0.157729 -0.173292 -0.183157 -0.186504 
-0.182778 -0.171683 -0.153187 -0.127532 -0.095257 -0.058349 
-0.026216 0.000579 0.022846 0.041296 0.056529 0.068992 
0.078951 0.086433 0.091190 0.092641 0.089840 0.081446 
0.071796 0.075329 0.091349 0.121618 0.166928 0.226996 
0.300391 0.384496 0.475506 0.568447 0.657210 0.734612 
0.792463 0.800981 0.762882 0.700929 0.622413 0.534069 
0.442026 0.351728 0.267838 0.194140 0.133463 0.087622 
0.057400 0.042556 0.060514 0.092603 0.129517 0.170160 
0.213188 0.257081 0.300229 0.341001 0.377816 0.409195 
0.433802 0.450458 0.458137 0.399231 0.339104 0.286322 
0.235077 0.174946 0.088599 -0.051993 -0.291682 -0.702476 
-1.402514 -2.595023 -4.659011 0.000000 0.000000 -0.244293 
-0.140583 -0.081395 -0.047779 -0.029415 -0.020467 -0.017620 
-0.019094 -0.024135 -0.032756 -0.045629 -0.064087 -0.089467 
-0.114467 -0.138314 -0.159449 -0.176536 -0.188473 -0.194403 
-0.193718 -0.186061 -0.171321 -0.149645 -0.121452 -0.087474 
-0.050284 -0.019801 0.004427 0.023282 0.037594 0.048134 
0.055588 0.060528 0.063372 0.064334 0.063368 0.060117 
0.053862 0.050570 0.064558 0.093123 0.137573 0.198224 
0.274301 0.363867 0.463789 0.569739 0.676234 0.776698 
0.863573 0.928457 0.932168 0.881203 0.806038 0.714200 
0.612567 0.507325 0.403905 0.306925 0.220134 0.146373 
0.087550 0.044638 0.017694 0.022467 0.043416 0.072281 
0.107762 0.148207 0.191727 0.236328 0.280019 0.320918 
0.357326 0.387785 0.411106 0.426361 0.386008 0.343334 
0.305879 0.268934 0.223601 0.155006 0.039331 -0.160827 
-0.503953 -1.082610 -2.048446 -3.666276 0.000000 0.000000 
-0.221081 -0.134349 -0.082237 -0.051400 -0.034136 -0.025877 
-0.023919 -0.026746 -0.033659 -0.044575 -0.059931 -0.080660 
-0.107299 -0.131171 -0.152853 -0.171064 -0.184733 -0.193007 
-0.195254 -0.191065 -0.180249 -0.162845 -0.139126 -0.109639 
-0.075262 -0.039098 -0.011268 0.009790 0.024992 0.035259 
0.041512 0.044660 0.045571 0.045036 0.043716 0.042084 
0.040352 0.038405 0.043355 0.068891 0.110803 0.169973 
0.246288 0.338536 0.444325 0.560044 0.680865 0.800782 
0.912716 1.008670 1.079954 1.077631 1.012505 0.923142 
0.817350 0.702181 0.583879 0.467833 0.358551 0.259642 
0.173818 0.102907 0.047877 0.008872 -0.000029 0.008942 
0.028707 0.057907 0.094684 0.136853 0.182067 0.227979 
0.272379 0.313306 0.349123 0.378555 0.400694 0.377118 
0.350374 0.327134 0.303862 0.273379 0.223544 0.135031 
-0.022105 -0.293861 -0.751478 -1.508706 -2.758245 0.000000 
0.000000 -0.196718 -0.128287 -0.084810 -0.057910 -0.042397 
-0.035015 -0.033737 -0.037358 -0.045250 -0.057219 -0.073425 
-0.094334 -0.119857 -0.141624 -0.160339 -0.175036 -0.184931 
-0.189423 -0.188095 -0.180712 -0.167229 -0.147799 -0.122799 
-0.092882 -0.059062 -0.024973 -0.000685 0.016574 0.027746 
0.033846 0.035953 0.035204 0.032769 0.029807 0.027415 
0.026554 0.027970 0.032106 0.046785 0.084698 0.140615 
0.215069 0.307592 0.416592 0.539252 0.671480 0.807888 
0.941856 1.065654 1.170667 1.247715 1.238122 1.157380 
1.052299 0.931166 0.801359 0.669284 0.540338 0.418911 
0.308413 0.211310 0.129181 0.062775 0.012068 -0.010647 
-0.014238 -0.004458 0.017422 0.049469 0.089285 0.134230 
0.181624 0.228933 0.273915 0.314718 0.349937 0.378625 
0.370775 0.359116 0.349467 0.339412 0.323466 0.292138 
0.230297 0.114588 -0.090720 -0.440900 -1.024549 -1.993298 
0.000000 0.000000 -0.171365 -0.122187 -0.088958 -0.067397 
-0.054558 -0.048442 -0.047711 -0.051495 -0.059265 -0.070736 
-0.085804 -0.104492 -0.126312 -0.144584 -0.159345 -0.169934 
-0.175832 -0.176659 -0.172172 -0.162272 -0.147009 -0.126609 
-0.101511 -0.072437 -0.040498 -0.009756 0.010153 0.023201 
0.030345 0.032671 0.031392 0.027832 0.023398 0.019537 
0.017673 0.019128 0.025034 0.036231 0.060926 0.110464 
0.178829 0.266349 0.372352 0.495014 0.631241 0.776583 
0.925210 1.069971 1.202553 1.313769 1.393968 1.377204 
1.283112 1.164947 1.031466 0.890340 0.748069 0.609966 
0.480184 0.361779 0.256795 0.166359 0.090767 0.029580 
-0.006339 -0.022715 -0.023989 -0.011116 0.014098 0.049235 
0.091519 0.138069 0.186120 0.233201 0.277267 0.316767 
0.350669 0.357183 0.359563 0.362637 0.364982 0.362661 
0.348588 0.311297 0.232919 0.085769 -0.173822 -0.617757 
-1.372949 0.000000 0.000000 -0.151790 -0.117733 -0.093809 
-0.077649 -0.067539 -0.062266 -0.060978 -0.063087 -0.068187 
-0.076006 -0.086352 -0.099072 -0.113764 -0.126502 -0.136328 
-0.142830 -0.145691 -0.144672 -0.139621 -0.130470 -0.117247 
-0.100100 -0.079330 -0.055453 -0.029287 -0.004454 0.010973 
0.021398 0.027572 0.030369 0.030784 0.029916 0.028941 
0.029070 0.031503 0.037356 0.047592 0.062935 0.092212 
0.144894 0.213047 0.296906 0.395885 0.508441 0.631953 
0.762630 0.895478 1.024348 1.142081 1.240778 1.312195 
1.296004 1.211269 1.106823 0.990016 0.867181 0.743559 
0.623290 0.509460 0.404172 0.308648 0.223336 0.148007 
0.081858 0.036840 0.009142 -0.004897 -0.005406 0.006513 
0.029016 0.059777 0.096235 0.135834 0.176202 0.215292 
0.251470 0.283553 0.298553 0.309619 0.320393 0.330408 
0.337289 0.336403 0.320106 0.276435 0.186852 0.022086 
-0.266158 -0.763149 0.000000 0.000000 -0.137873 -0.115123 
-0.098507 -0.086814 -0.079106 -0.074681 -0.073020 -0.073738 
-0.076542 -0.081196 -0.087491 -0.095204 -0.104006 -0.111799 
-0.117368 -0.120450 -0.120834 -0.118357 -0.112907 -0.104423 
-0.092907 -0.078442 -0.061225 -0.041614 -0.020205 -0.000192 
0.011779 0.020318 0.026040 0.029663 0.032006 0.033968 
0.036502 0.040577 0.047134 0.057028 0.070966 0.089440 
0.121487 0.175028 0.240899 0.319368 0.410020 0.511618 
0.621993 0.737953 0.855252 0.968624 1.071918 1.158338 
1.220803 1.206373 1.132620 1.042606 0.942568 0.837762 
0.732403 0.629671 0.531759 0.439969 0.354812 0.276131 
0.203212 0.134900 0.082810 0.045233 0.019724 0.006941 
0.006451 0.016969 0.036619 0.063190 0.094367 0.127925 
0.161870 0.194534 0.224628 0.245627 0.263048 0.279445 
0.294895 0.307996 0.315672 0.312678 0.290689 0.236685 
0.129933 -0.064011 -0.405974 0.000000 0.000000 -0.127922 
-0.113581 -0.102612 -0.094498 -0.088779 -0.085083 -0.083118 
-0.082648 -0.083475 -0.085419 -0.088294 -0.091877 -0.095899 
-0.099428 -0.101442 -0.101746 -0.100181 -0.096613 -0.090941 
-0.083095 -0.073045 -0.060823 -0.046539 -0.030427 -0.012902 
0.003261 0.012700 0.020054 0.025843 0.030673 0.035211 
0.040177 0.046307 0.054325 0.064894 0.078572 0.095760 
0.116639 0.150075 0.202681 0.264695 0.336508 0.417918 
0.508011 0.605052 0.706406 0.808504 0.906880 0.996277 
1.070866 1.124555 1.112829 1.051197 0.976154 0.893013 
0.806118 0.718801 0.633401 0.551332 0.473183 0.398844 
0.327632 0.258435 0.189835 0.131898 0.085409 0.049511 
0.025536 0.013618 0.012950 0.022060 0.039066 0.061912 
0.088549 0.117082 0.145867 0.173563 0.198286 0.220023 
0.240338 0.259548 0.276816 0.290028 0.295431 0.286948 
0.254942 0.183909 0.047996 -0.198132 0.000000 0.000000 
-0.120775 -0.112554 -0.105800 -0.100401 -0.096196 -0.093023 
-0.090743 -0.089229 -0.088365 -0.088030 -0.088080 -0.088331 
-0.088569 -0.088571 -0.087724 -0.085862 -0.082838 -0.078523 
-0.072810 -0.065608 -0.056861 -0.046546 -0.034704 -0.021461 
-0.007074 0.006098 0.013843 0.020673 0.027050 0.033483 
0.040512 0.048684 0.058529 0.070521 0.085038 0.102326 
0.122446 0.145239 0.179037 0.229323 0.286321 0.350588 
0.422159 0.500443 0.584124 0.671090 0.758405 0.842337 
0.918447 0.981775 1.027094 1.018797 0.970034 0.910361 
0.844275 0.775291 0.705927 0.637738 0.571407 0.506869 
0.443450 0.380029 0.315196 0.247407 0.184162 0.129295 
0.083840 0.049652 0.027286 0.016301 0.015546 0.023426 
0.038127 0.057791 0.080656 0.105147 0.129930 0.156344 
0.180605 0.203402 0.225078 0.245086 0.261882 0.272638 
0.272694 0.254579 0.206221 0.107593 -0.075816 0.000000 
0.000000 -0.115666 -0.111670 -0.107844 -0.104319 -0.101111 
-0.098198 -0.095541 -0.093092 -0.090799 -0.088592 -0.086378 
-0.084025 -0.081364 -0.078596 -0.075564 -0.072106 -0.068073 
-0.063330 -0.057753 -0.051234 -0.043679 -0.035024 -0.025237 
-0.014346 -0.002460 0.008490 0.015293 0.022227 0.029704 
0.038150 0.047983 0.059589 0.073291 0.089317 0.107759 
0.128544 0.151390 0.175781 0.209200 0.256123 0.307283 
0.363416 0.424798 0.491154 0.561572 0.634440 0.707423 
0.777481 0.840946 0.893660 0.931192 0.926874 0.891432 
0.847435 0.798597 0.747627 0.696235 0.645199 0.594480 
0.543377 0.490704 0.434976 0.374606 0.308073 0.239491 
0.176398 0.121962 0.078386 0.046487 0.026056 0.016168 
0.015450 0.022298 0.035038 0.052059 0.071884 0.093234 
0.119570 0.144787 0.168833 0.191944 0.213681 0.232824 
0.247127 0.252872 0.244092 0.211202 0.138550 -0.000098 
0.000000 0.000000 -0.112132 -0.110701 -0.108612 -0.106134 
-0.103392 -0.100447 -0.097324 -0.094027 -0.090546 -0.086852 
-0.082895 -0.078593 -0.073819 -0.069031 -0.064456 -0.059930 
-0.055299 -0.050420 -0.045154 -0.039370 -0.032945 -0.025766 
-0.017733 -0.008768 0.001170 0.010583 0.017124 0.024751 
0.033829 0.044701 0.057666 0.072949 0.090670 0.110813 
0.133188 0.157407 0.182853 0.208662 0.241182 0.283975 
0.328741 0.376385 0.427416 0.481861 0.539198 0.598300 
0.657416 0.714175 0.765650 0.808459 0.838928 0.839024 
0.817144 0.789071 0.757715 0.724948 0.691633 0.657736 
0.622472 0.584505 0.542170 0.493700 0.437447 0.372073 
0.297675 0.226198 0.163118 0.110802 0.070169 0.041113 
0.022833 0.014105 0.013487 0.019469 0.030581 0.045469 
0.062933 0.087701 0.112516 0.136742 0.160435 0.183159 
0.203877 0.220733 0.230699 0.228973 0.207974 0.155646 
0.052490 0.000000 0.000000 -0.109958 -0.109546 -0.108058 
-0.105823 -0.103020 -0.099746 -0.096059 -0.091987 -0.087542 
-0.082718 -0.077493 -0.071823 -0.065628 -0.059539 -0.054019 
-0.048909 -0.044056 -0.039309 -0.034520 -0.029539 -0.024211 
-0.018373 -0.011852 -0.004459 0.004013 0.012506 0.019401 
0.028271 0.039431 0.053138 0.069567 0.088780 0.110696 
0.135056 0.161397 0.189024 0.217000 0.244134 0.275401 
0.313516 0.351535 0.390510 0.431160 0.473805 0.518300 
0.563996 0.609714 0.653748 0.693905 0.727573 0.751834 
0.756719 0.748495 0.736558 0.722954 0.708643 0.693571 
0.676819 0.656812 0.631566 0.598968 0.557045 0.504213 
0.439471 0.358449 0.278196 0.206603 0.146017 0.097316 
0.060371 0.034409 0.018283 0.010657 0.010149 0.015416 
0.025219 0.038452 0.060450 0.083714 0.107184 0.130727 
0.153864 0.175669 0.194592 0.208179 0.212640 0.202164 
0.167831 0.095843 0.000000 0.000000 -0.109135 -0.108221 
-0.106227 -0.103460 -0.100087 -0.096202 -0.091855 -0.087074 
-0.081868 -0.076235 -0.070164 -0.063637 -0.056623 -0.049902 
-0.043987 -0.038733 -0.033997 -0.029629 -0.025476 -0.021371 
-0.017127 -0.012530 -0.007323 -0.001196 0.006241 0.014378 
0.022179 0.032803 0.046501 0.063437 0.083658 0.107058 
0.133352 0.162043 0.192397 0.223428 0.253893 0.282302 
0.312074 0.345139 0.376207 0.406450 0.436780 0.467795 
0.499722 0.532387 0.565185 0.597079 0.626615 0.651966 
0.670999 0.681027 0.686446 0.690828 0.695261 0.699692 
0.703050 0.703445 0.698446 0.685403 0.661783 0.625490 
0.575127 0.510171 0.421517 0.331953 0.251814 0.183270 
0.127020 0.082813 0.049820 0.026897 0.012761 0.006114 
0.005711 0.010409 0.019195 0.037509 0.058275 0.080181 
0.102926 0.125988 0.148543 0.169325 0.186428 0.197032 
0.196983 0.180209 0.137857 0.000000 0.000000 -0.109834 
-0.106849 -0.103256 -0.099215 -0.094803 -0.090049 -0.084959 
-0.079526 -0.073736 -0.067571 -0.061019 -0.054071 -0.046758 
-0.040008 -0.034193 -0.029194 -0.024883 -0.021121 -0.017753 
-0.014598 -0.011436 -0.007997 -0.003933 0.001203 0.008005 
0.016306 0.025512 0.038354 0.055013 0.075551 0.099877 
0.127714 0.158570 0.191708 0.226130 0.260567 0.293485 
0.323115 0.351213 0.378985 0.403000 0.424523 0.444646 
0.464235 0.483892 0.503917 0.524290 0.544650 0.564305 
0.582238 0.597144 0.612669 0.631631 0.652463 0.675192 
0.698638 0.720595 0.738101 0.747804 0.746362 0.730855 
0.699144 0.650136 0.583920 0.486565 0.387093 0.298268 
0.221940 0.158525 0.107566 0.068107 0.038948 0.018808 
0.006424 0.000615 0.000308 0.004560 0.018546 0.036071 
0.055722 0.077079 0.099612 0.122623 0.145156 0.165884 
0.182970 0.193887 0.195229 0.182547 0.000000 0.000000 
-0.112388 -0.105659 -0.099377 -0.093365 -0.087491 -0.081646 
-0.075742 -0.069706 -0.063477 -0.057009 -0.050274 -0.043269 