# vtk DataFile Version 1.0
vtk output
ASCII
DATASET POLYDATA
POINTS 1600 float
-0.998967 0.005733 -0.997537 -0.900970 0.049209 -0.998192 
-0.806786 0.089714 -0.998766 -0.716308 0.127303 -0.999264 
-0.629424 0.162030 -0.999689 -0.546025 0.193950 -1.000046 
-0.466001 0.223118 -1.000339 -0.389244 0.249588 -1.000572 
-0.315642 0.273415 -1.000750 -0.245088 0.294654 -1.000876 
-0.177469 0.313359 -1.000956 -0.112679 0.329585 -1.000993 
-0.050605 0.343387 -1.000991 0.008860 0.354819 -1.000955 
0.065827 0.363936 -1.000890 0.120406 0.370793 -1.000799 
0.172706 0.375444 -1.000686 0.222836 0.377945 -1.000557 
0.270907 0.378348 -1.000414 0.317028 0.376711 -1.000263 
0.361309 0.373086 -1.000107 0.403859 0.367529 -0.999952 
0.444788 0.360094 -0.999800 0.484206 0.350836 -0.999657 
0.522222 0.339810 -0.999527 0.558946 0.327071 -0.999414 
0.594488 0.312672 -0.999322 0.628957 0.296669 -0.999255 
0.662463 0.279116 -0.999218 0.695116 0.260069 -0.999215 
0.727025 0.239581 -0.999250 0.758299 0.217707 -0.999328 
0.789050 0.194503 -0.999452 0.819386 0.170022 -0.999628 
0.849416 0.144319 -0.999858 0.879251 0.117450 -1.000149 
0.909001 0.089468 -1.000503 0.938774 0.060428 -1.000925 
0.968681 0.030386 -1.001419 0.998831 -0.000605 -1.001990 
-0.999281 0.019514 -0.944227 -0.901229 0.064389 -0.944744 
-0.807002 0.106261 -0.945198 -0.716488 0.145181 -0.945593 
-0.629578 0.181201 -0.945933 -0.546161 0.214371 -0.946220 
-0.466127 0.244745 -0.946458 -0.389365 0.272372 -0.946649 
-0.315766 0.297305 -0.946798 -0.245219 0.319594 -0.946908 
-0.177613 0.339292 -0.946981 -0.112838 0.356449 -0.947021 
-0.050785 0.371118 -0.947031 0.008658 0.383349 -0.947015 
0.065601 0.393194 -0.946975 0.120154 0.400704 -0.946916 
0.172427 0.405931 -0.946840 0.222531 0.408927 -0.946750 
0.270576 0.409742 -0.946650 0.316673 0.408428 -0.946543 
0.360931 0.405037 -0.946432 0.403461 0.399620 -0.946321 
0.444374 0.392228 -0.946213 0.483779 0.382913 -0.946111 
0.521788 0.371727 -0.946018 0.558509 0.358720 -0.945938 
0.594055 0.343944 -0.945874 0.628534 0.327451 -0.945829 
0.662058 0.309292 -0.945806 0.694737 0.289518 -0.945808 
0.726681 0.268182 -0.945840 0.758000 0.245333 -0.945904 
0.788804 0.221024 -0.946003 0.819205 0.195307 -0.946141 
0.849312 0.168232 -0.946321 0.879236 0.139851 -0.946545 
0.909087 0.110216 -0.946819 0.938975 0.079378 -0.947144 
0.969011 0.047388 -0.947524 0.999305 0.014297 -0.947962 
-0.999573 0.032622 -0.891264 -0.901557 0.078810 -0.891656 
-0.807365 0.121966 -0.892002 -0.716888 0.162138 -0.892305 
-0.630013 0.199375 -0.892568 -0.546631 0.233725 -0.892792 
-0.466632 0.265235 -0.892979 -0.389904 0.293956 -0.893133 
-0.316337 0.319933 -0.893256 -0.245820 0.343217 -0.893350 
-0.178243 0.363855 -0.893417 -0.113496 0.381896 -0.893459 
-0.051467 0.397387 -0.893480 0.007954 0.410378 -0.893481 
0.064877 0.420915 -0.893465 0.119414 0.429049 -0.893434 
0.171674 0.434826 -0.893390 0.221768 0.438295 -0.893337 
0.269807 0.439505 -0.893275 0.315901 0.438503 -0.893208 
0.360162 0.435339 -0.893138 0.402698 0.430059 -0.893067 
0.443622 0.422713 -0.892997 0.483044 0.413349 -0.892932 
0.521074 0.402015 -0.892872 0.557822 0.388759 -0.892822 
0.593401 0.373629 -0.892782 0.627919 0.356675 -0.892756 
0.661487 0.337944 -0.892746 0.694217 0.317484 -0.892753 
0.726219 0.295343 -0.892781 0.757602 0.271571 -0.892832 
0.788479 0.246215 -0.892908 0.818959 0.219323 -0.893011 
0.849153 0.190944 -0.893144 0.879172 0.161126 -0.893310 
0.909126 0.129917 -0.893510 0.939125 0.097366 -0.893747 
0.969281 0.063521 -0.894023 0.999704 0.028429 -0.894340 
-0.999843 0.045054 -0.838630 -0.901946 0.092471 -0.838909 
-0.807864 0.136830 -0.839159 -0.717488 0.178178 -0.839379 
-0.630707 0.216558 -0.839572 -0.547409 0.252017 -0.839739 
-0.467486 0.284599 -0.839882 -0.390826 0.314350 -0.840002 
-0.317319 0.341314 -0.840101 -0.246854 0.365538 -0.840181 
-0.179321 0.387066 -0.840242 -0.114610 0.405943 -0.840287 
-0.052611 0.422215 -0.840317 0.006788 0.435926 -0.840333 
0.063697 0.447122 -0.840338 0.118225 0.455849 -0.840332 
0.170484 0.462150 -0.840317 0.220584 0.466072 -0.840296 
0.268636 0.467660 -0.840268 0.314749 0.466959 -0.840236 
0.359034 0.464013 -0.840202 0.401602 0.458869 -0.840167 
0.442563 0.451572 -0.840132 0.482027 0.442165 -0.840099 
0.520105 0.430696 -0.840069 0.556907 0.417208 -0.840045 
0.592545 0.401748 -0.840027 0.627127 0.384360 -0.840018 
0.660765 0.365089 -0.840018 0.693569 0.343981 -0.840030 
0.725650 0.321081 -0.840054 0.757117 0.296434 -0.840093 
0.788082 0.270085 -0.840147 0.818654 0.242080 -0.840219 
0.848944 0.212463 -0.840310 0.879063 0.181280 -0.840422 
0.909122 0.148576 -0.840555 0.939229 0.114396 -0.840713 
0.969496 0.078785 -0.840895 1.000034 0.041789 -0.841104 
-1.000091 0.056804 -0.786304 -0.902389 0.105369 -0.786484 
-0.808486 0.150855 -0.786647 -0.718271 0.193303 -0.786793 
-0.631635 0.232756 -0.786924 -0.548467 0.269256 -0.787041 
-0.468657 0.302846 -0.787144 -0.392097 0.333566 -0.787234 
-0.318674 0.361461 -0.787312 -0.248281 0.386571 -0.787378 
-0.180806 0.408939 -0.787435 -0.116141 0.428607 -0.787481 
-0.054174 0.445618 -0.787519 0.005203 0.460013 -0.787549 
0.062101 0.471834 -0.787572 0.116630 0.481124 -0.787588 
0.168899 0.487926 -0.787599 0.219019 0.492280 -0.787606 
0.267100 0.494230 -0.787608 0.313250 0.493817 -0.787608 
0.357581 0.491084 -0.787605 0.400202 0.486072 -0.787601 
0.441223 0.478825 -0.787596 0.480754 0.469384 -0.787592 
0.518905 0.457791 -0.787589 0.555786 0.444089 -0.787588 
0.591507 0.428319 -0.787589 0.626177 0.410524 -0.787594 
0.659907 0.390747 -0.787603 0.692806 0.369028 -0.787618 
0.724985 0.345411 -0.787639 0.756552 0.319937 -0.787666 
0.787620 0.292649 -0.787701 0.818296 0.263589 -0.787745 
0.848691 0.232799 -0.787798 0.878915 0.200321 -0.787861 
0.909078 0.166198 -0.787935 0.939290 0.130471 -0.788021 
0.969660 0.093183 -0.788119 1.000299 0.054376 -0.788231 
-1.000318 0.067869 -0.734269 -0.902881 0.117504 -0.734360 
-0.809218 0.164040 -0.734446 -0.719219 0.207517 -0.734528 
-0.632775 0.247974 -0.734604 -0.549776 0.285450 -0.734676 
-0.470115 0.319985 -0.734743 -0.393682 0.351617 -0.734806 
-0.320368 0.380386 -0.734866 -0.250063 0.406331 -0.734921 
-0.182659 0.429491 -0.734972 -0.118047 0.449906 -0.735021 
-0.056117 0.467615 -0.735065 0.003239 0.482657 -0.735107 
0.060131 0.495071 -0.735146 0.114667 0.504897 -0.735182 
0.166957 0.512173 -0.735215 0.217110 0.516940 -0.735246 
0.265235 0.519236 -0.735275 0.311441 0.519100 -0.735301 
0.355836 0.516572 -0.735326 0.398531 0.511690 -0.735350 
0.439633 0.504496 -0.735371 0.479253 0.495026 -0.735392 
0.517499 0.483321 -0.735412 0.554481 0.469420 -0.735430 
0.590307 0.453362 -0.735448 0.625086 0.435187 -0.735465 
0.658927 0.414933 -0.735482 0.691941 0.392640 -0.735499 
0.724235 0.368347 -0.735516 0.755918 0.342094 -0.735533 
0.787100 0.313919 -0.735551 0.817891 0.283862 -0.735569 
0.848398 0.251961 -0.735588 0.878731 0.218257 -0.735607 
0.908999 0.182789 -0.735628 0.939311 0.145595 -0.735651 
0.969777 0.106716 -0.735675 1.000504 0.066189 -0.735700 
-1.000525 0.078244 -0.682503 -0.903415 0.128873 -0.682517 
-0.810046 0.176388 -0.682537 -0.720311 0.220824 -0.682561 
-0.634102 0.262218 -0.682590 -0.551310 0.300607 -0.682623 
-0.471828 0.336026 -0.682659 -0.395548 0.368513 -0.682699 
-0.322361 0.398103 -0.682741 -0.252161 0.424833 -0.682787 
-0.184839 0.448739 -0.682834 -0.120287 0.469858 -0.682883 
-0.058397 0.488226 -0.682933 0.000939 0.503879 -0.682985 
0.057828 0.516854 -0.683037 0.112378 0.527187 -0.683090 
0.164699 0.534915 -0.683143 0.214896 0.540074 -0.683195 
0.263079 0.542700 -0.683246 0.309355 0.542830 -0.683296 
0.353832 0.540499 -0.683345 0.396619 0.535746 -0.683392 
0.437822 0.528605 -0.683436 0.477550 0.519113 -0.683478 
0.515911 0.507307 -0.683517 0.553013 0.493223 -0.683553 
0.588963 0.476897 -0.683584 0.623870 0.458367 -0.683612 
0.657842 0.437667 -0.683635 0.690986 0.414834 -0.683654 
0.723410 0.389906 -0.683667 0.755223 0.362918 -0.683674 
0.786532 0.333906 -0.683676 0.817445 0.302908 -0.683671 
0.848070 0.269959 -0.683659 0.878515 0.235095 -0.683641 
0.908888 0.198354 -0.683615 0.939297 0.159772 -0.683581 
0.969849 0.119384 -0.683539 1.000654 0.077228 -0.683489 
-1.000712 0.087924 -0.630988 -0.903984 0.139475 -0.630936 
-0.810959 0.187898 -0.630898 -0.721531 0.233227 -0.630874 
-0.635594 0.275494 -0.630861 -0.553040 0.314734 -0.630860 
-0.473765 0.350980 -0.630870 -0.397660 0.384266 -0.630889 
-0.324619 0.414625 -0.630917 -0.254537 0.442091 -0.630953 
-0.187306 0.466698 -0.630997 -0.122820 0.488479 -0.631047 
-0.060973 0.507467 -0.631102 -0.001658 0.523697 -0.631162 
0.055232 0.537202 -0.631226 0.109803 0.548016 -0.631292 
0.162162 0.556172 -0.631361 0.212415 0.561704 -0.631431 
0.260668 0.564645 -0.631502 0.307028 0.565029 -0.631572 
0.351602 0.562889 -0.631640 0.394497 0.558260 -0.631707 
0.435817 0.551175 -0.631771 0.475671 0.541667 -0.631830 
0.514165 0.529770 -0.631886 0.551404 0.515518 -0.631935 
0.587497 0.498944 -0.631979 0.622548 0.480082 -0.632015 
0.656666 0.458965 -0.632043 0.689955 0.435627 -0.632062 
0.722523 0.410102 -0.632071 0.754476 0.382423 -0.632070 
0.785921 0.352624 -0.632057 0.816965 0.320739 -0.632032 
0.847713 0.286800 -0.631994 0.878272 0.250843 -0.631941 
0.908749 0.212899 -0.631874 0.939250 0.173003 -0.631792 
0.969882 0.131189 -0.631692 1.000752 0.087490 -0.631576 
-1.000880 0.096906 -0.579705 -0.904581 0.149309 -0.579597 
-0.811942 0.198573 -0.579510 -0.722859 0.244729 -0.579444 
-0.637226 0.287807 -0.579396 -0.554940 0.327839 -0.579367 
-0.475893 0.364856 -0.579353 -0.399983 0.398887 -0.579355 
-0.327105 0.429965 -0.579371 -0.257152 0.458121 -0.579400 
-0.190021 0.483384 -0.579440 -0.125607 0.505787 -0.579490 
-0.063804 0.525359 -0.579549 -0.004508 0.542132 -0.579615 
0.052386 0.556137 -0.579689 0.106983 0.567405 -0.579767 
0.159387 0.575966 -0.579849 0.209704 0.581851 -0.579934 
0.258039 0.585092 -0.580020 0.304496 0.585719 -0.580107 
0.349180 0.583763 -0.580192 0.392196 0.579256 -0.580275 
[...]
POINT_DATA 1600
SCALARS scalars float
LOOKUP_TABLE default
0.000000 0.000000 0.000000 0.000000 0.000000 0.000000 
0.000000 0.000000 0.000000 0.000000 0.000000 0.000000 
0.000000 0.000000 0.000000 0.000000 0.000000 0.000000 
0.000000 0.000000 0.000000 0.000000 0.000000 0.000000 
0.000000 0.000000 0.000000 0.000000 0.000000 0.000000 
0.000000 0.000000 0.000000 0.000000 0.000000 0.000000 
0.000000 0.000000 0.000000 0.000000 0.000000 -0.020639 
-0.018431 -0.015400 -0.011394 -0.006238 0.000263 0.008326 
0.018190 0.030108 0.044345 0.061157 0.080779 0.103389 
0.129073 0.157772 0.189225 0.222898 0.257924 0.293059 
0.326666 0.356767 0.381164 0.397636 0.404202 0.399410 
0.382579 0.353942 0.314647 0.266602 0.212197 0.153986 
0.094377 0.035406 -0.021400 -0.075050 -0.125046 -0.171293 
-0.213981 0.000000 0.000000 -0.018337 -0.015835 -0.012493 
-0.008150 -0.002624 0.004297 0.012847 0.023292 0.035917 
0.051023 0.068916 0.089880 0.114149 0.141860 0.172997 
0.207315 0.244261 0.282895 0.321830 0.359218 0.392803 
0.420078 0.438532 0.445979 0.440905 0.422749 0.392043 
0.350358 0.300071 0.243998 0.185009 0.125682 0.068082 
0.013657 -0.036752 -0.082823 -0.124636 -0.162538 0.000000 
0.000000 -0.016139 -0.013340 -0.009678 -0.004988 0.000926 
0.008287 0.017352 0.028407 0.041770 0.057783 0.076794 
0.099142 0.125115 0.154904 0.188535 0.225782 0.266069 
0.308376 0.351163 0.392346 0.429368 0.459385 0.479575 
0.487544 0.481730 0.461729 0.428411 0.383807 0.330775 
0.272547 0.212271 0.152652 0.095743 0.042883 -0.005247 
-0.048498 -0.087110 -0.121563 0.000000 0.000000 -0.014012 
-0.010914 -0.006928 -0.001879 0.004436 0.012255 0.021852 
0.033541 0.047669 0.064615 0.084774 0.108534 0.136242 
0.168141 0.204298 0.244506 0.288165 0.334167 0.380804 
0.425740 0.466094 0.498663 0.520304 0.528413 0.521411 
0.499086 0.462693 0.414751 0.358609 0.297891 0.235992 
0.175700 0.119023 0.067168 0.020651 -0.020546 -0.056807 
-0.088725 0.000000 0.000000 -0.011928 -0.008530 -0.004216 
0.001197 0.007923 0.016212 0.026359 0.038699 0.053610 
0.071508 0.092832 0.118022 0.147478 0.181496 0.220186 
0.263354 0.310373 0.360040 0.410470 0.459059 0.502582 
0.537465 0.560236 0.568099 0.559485 0.534420 0.494582 
0.443004 0.383521 0.320128 0.256421 0.195236 0.138503 
0.087286 0.041931 0.002263 -0.032231 -0.062241 0.000000 
0.000000 -0.009862 -0.006166 -0.001522 0.004259 0.011402 
0.020171 0.030878 0.043880 0.059585 0.078445 0.100941 
0.127564 0.158763 0.194888 0.236086 0.282176 0.332498 
0.385748 0.439855 0.491935 0.538407 0.575319 0.598878 
0.606115 0.595508 0.567365 0.523820 0.468432 0.405510 
0.339385 0.273815 0.211645 0.154703 0.103897 0.059409 
0.020915 -0.012212 -0.040746 0.000000 0.000000 -0.007797 
-0.003805 0.001169 0.007320 0.014883 0.024137 0.035408 
0.049078 0.065582 0.085404 0.109069 0.137110 0.170031 
0.208224 0.251874 0.300809 0.354330 0.411027 0.468634 
0.523980 0.573127 0.611745 0.635736 0.641988 0.629065 
0.597594 0.550192 0.490944 0.424607 0.355809 0.288428 
0.225280 0.168074 0.117557 0.073751 0.036196 0.004162 
-0.023195 0.000000 0.000000 -0.005715 -0.001432 0.003868 
0.010388 0.018371 0.028110 0.039947 0.054284 0.071583 
0.092359 0.117174 0.146607 0.181204 0.221403 0.267418 
0.319079 0.375645 0.435596 0.496466 0.554797 0.606294 
0.646266 0.670332 0.675273 0.659779 0.624829 0.573534 
0.510491 0.440874 0.369559 0.300501 0.236459 0.179007 
0.128731 0.085500 0.048731 0.017603 -0.008785 0.000000 
0.000000 -0.003608 0.000962 0.006583 0.013467 0.021868 
0.032088 0.044486 0.059483 0.077563 0.099274 0.125210 
0.155990 0.192199 0.234314 0.282572 0.336801 0.396212 
0.459167 0.523005 0.583983 0.637464 0.678417 0.702211 
0.705559 0.687315 0.648835 0.593722 0.527060 0.454392 
0.380794 0.310259 0.245463 0.187836 0.137804 0.095096 
0.059016 0.028669 0.003105 0.000000 0.000000 -0.001468 
0.003380 0.009316 0.016558 0.025368 0.036062 0.049010 
0.064653 0.083495 0.106111 0.133125 0.165189 0.202926 
0.246840 0.297186 0.353784 0.415789 0.481450 0.547908 
0.611148 0.666213 0.707762 0.730955 0.732482 0.711394 
0.669431 0.610679 0.540666 0.465255 0.389672 0.317909 
0.252539 0.194841 0.145093 0.102891 0.067446 0.037797 
0.012955 0.000000 0.000000 0.000706 0.005823 0.012064 
0.019654 0.028864 0.040018 0.053501 0.069768 0.089344 
0.112823 0.140859 0.174129 0.213286 0.258856 0.311104 
0.369833 0.434141 0.502159 0.570841 0.635919 0.692143 
0.733903 0.756199 0.755736 0.731789 0.686488 0.624366 
0.551353 0.473571 0.396346 0.323637 0.257898 0.200260 
0.150858 0.109174 0.074335 0.045328 0.021138 0.000000 
0.000000 0.002912 0.008286 0.014821 0.022746 0.032341 
0.043938 0.057934 0.074797 0.095068 0.119360 0.148346 
0.182728 0.223177 0.270235 0.324167 0.384755 0.451034 
0.521020 0.591494 0.657955 0.714900 0.756498 0.777636 
0.775076 0.748338 0.699926 0.634786 0.559187 0.479453 
0.400962 0.327610 0.261724 0.204290 0.155312 0.114172 
0.079931 0.051533 0.027945 0.000000 0.000000 0.005142 
0.010760 0.017574 0.025819 0.035780 0.047798 0.062280 
0.079703 0.100622 0.125664 0.155517 0.190899 0.232493 
0.280847 0.336220 0.398363 0.466247 0.537781 0.609585 
0.676958 0.734185 0.775266 0.795029 0.790329 0.760940 
0.709721 0.641977 0.564255 0.483019 0.403658 0.329978 
0.264174 0.207095 0.158629 0.118073 0.084433 0.056626 
0.033606 0.000000 0.000000 0.007385 0.013232 0.020308 
0.028853 0.039158 0.051570 0.066504 0.084444 0.105955 
0.131673 0.162298 0.198552 0.241126 0.290565 0.347112 
0.410481 0.479581 0.552218 0.624873 0.692680 0.749759 
0.789998 0.808215 0.801393 0.769559 0.715896 0.646011 
0.566660 0.484393 0.404564 0.330873 0.265382 0.208813 
0.160951 0.121026 0.088001 0.060775 0.038301 0.000000 
0.000000 0.009624 0.015682 0.023000 0.031823 0.042446 
0.055221 0.070566 0.088974 0.111013 0.137324 0.168611 
0.205598 0.248971 0.299265 0.356700 0.420950 0.490859 
0.564142 0.637165 0.704934 0.761456 0.800564 0.817112 
0.808241 0.774223 0.718523 0.646991 0.566524 0.483698 
0.403802 0.330414 0.265464 0.209557 0.162394 0.123149 
0.090760 0.064115 0.042173 0.000000 0.000000 0.011837 
0.018087 0.025626 0.034701 0.045612 0.058712 0.074425 
0.093243 0.115737 0.142549 0.174379 0.211947 0.255927 
0.306834 0.364859 0.429632 0.499936 0.573407 0.646322 
0.713599 0.769185 0.806911 0.821718 0.810917 0.775016 
0.717717 0.645046 0.563977 0.481062 0.401489 0.328707 
0.264518 0.209422 0.163052 0.124542 0.092812 0.066754 
0.045335 0.000000 0.000000 0.013999 0.020420 0.028154 
0.037454 0.048619 0.062004 0.078033 0.097199 0.120069 
0.147281 0.179527 0.217514 0.261898 0.313168 0.371479 
0.436415 0.506702 0.579915 0.652264 0.718624 0.772932 
0.809072 0.822106 0.809535 0.772081 0.713633 0.640331 
0.559163 0.476609 0.397734 0.325848 0.262629 0.208489 
0.163004 0.125281 0.094238 0.068776 0.047878 0.000000 
0.000000 0.016079 0.022648 0.030553 0.040046 0.051427 
0.065053 0.081343 0.100788 0.123948 0.151453 0.183981 
0.222220 0.266800 0.318180 0.376474 0.441219 0.511091 
0.583616 0.654972 0.720027 0.772760 0.807152 0.818424 
0.804272 0.765608 0.706460 0.633020 0.552234 0.470469 
0.392642 0.321922 0.259871 0.206824 0.162312 0.125432 
0.095106 0.070251 0.049875 0.000000 0.000000 0.018043 
0.024736 0.032783 0.042437 0.053995 0.067813 0.084305 
0.103956 0.127317 0.155003 0.187674 0.225994 0.270563 
0.321801 0.379781 0.443994 0.513073 0.584514 0.654489 
0.717896 0.768802 0.801330 0.810884 0.795357 0.755828 
0.696415 0.623304 0.543348 0.462767 0.386313 0.317009 
0.256310 0.204483 0.161031 0.125047 0.095468 0.071237 
0.051386 0.000000 0.000000 0.019853 0.026646 0.034807 
0.044586 0.056280 0.070239 0.086872 0.106652 0.130120 
0.157872 0.190546 0.228777 0.273129 0.323984 0.381367 
0.444728 0.512667 0.582664 0.650913 0.712381 0.761259 
0.791846 0.799753 0.783068 0.743007 0.683735 0.611383 
0.532668 0.453629 0.378842 0.311183 0.252003 0.201516 
0.159204 0.124169 0.095370 0.071778 0.052458 0.000000 
0.000000 0.021471 0.028339 0.036584 0.046454 0.058240 
0.072287 0.088996 0.108828 0.132307 0.160011 0.192548 
0.230523 0.274462 0.324702 0.381226 0.443444 0.509930 
0.578169 0.644400 0.703689 0.750385 0.778993 0.785343 
0.767713 0.727434 0.668675 0.597468 0.520357 0.443180 
0.370321 0.304510 0.247002 0.197965 0.156871 0.122835 
0.094847 0.071913 0.053132 0.000000 0.000000 0.022855 
0.029774 0.038074 0.047998 0.059833 0.073914 0.090634 
0.110440 0.133836 0.161377 0.193643 0.231203 0.274542 
0.323955 0.379381 0.440196 0.504961 0.571177 0.635150 
0.692073 0.736481 0.763102 0.767999 0.749630 0.709415 
0.651495 0.581771 0.506580 0.431539 0.360837 0.297054 
0.241356 0.193868 0.154063 0.121076 0.093932 0.071674 
0.053442 0.000000 0.000000 0.023964 0.030913 0.039239 
0.049181 0.061020 0.075084 0.091750 0.111451 0.134672 
0.161940 0.193806 0.230802 0.273372 0.321766 0.375885 
0.435076 0.497893 0.561872 0.623402 0.677825 0.719879 
0.744534 0.748085 0.729165 0.689261 0.632461 0.564502 
0.491497 0.418826 0.350475 0.288875 0.235107 0.189260 
0.150810 0.118920 0.092651 0.071090 0.053415 0.000000 
0.000000 0.024762 0.031718 0.040042 0.049969 0.061770 
0.075763 0.092312 0.111834 0.134790 0.161683 0.193030 
0.229326 0.270974 0.318183 0.370817 0.428200 0.488891 
0.550470 0.609425 0.661262 0.700935 0.723664 0.725977 
0.706671 0.667285 0.611833 0.545867 0.475263 0.405152 
0.339313 0.280029 0.228296 0.184172 0.147139 0.116390 
0.091027 0.070183 0.053077 0.000000 0.000000 0.025211 
0.032156 0.040453 0.050331 0.062054 0.075926 0.092299 
0.111570 0.134179 0.160600 0.191319 0.226794 0.267389 
0.313273 0.364278 0.419712 0.478145 0.537211 0.593509 
0.642716 0.680013 0.700870 0.702045 0.682492 0.643789 
0.589859 0.526064 0.458025 0.390625 0.327428 0.270570 
0.220962 0.178633 0.143074 0.113509 0.089084 0.068976 
0.052449 0.000000 0.000000 0.025283 0.032199 0.040448 
0.050247 0.061853 0.075558 0.091698 0.110652 0.132837 
0.158701 0.188697 0.223247 0.262679 0.307126 0.356392 
0.409774 0.465861 0.522348 0.575952 0.622525 0.657476 
0.676524 0.676652 0.656960 0.619060 0.566778 0.505276 
0.439922 0.375342 0.314888 0.260545 0.213140 0.172671 
0.138638 0.110298 0.086841 0.067489 0.051551 0.000000 
0.000000 0.024955 0.031829 0.040008 0.049702 0.061156 
0.074651 0.090507 0.109084 0.130778 0.156009 0.185200 
0.218740 0.256922 0.299847 0.347297 0.398563 0.452258 
0.506143 0.557055 0.601023 0.633678 0.650982 0.650137 
0.630384 0.593363 0.542805 0.483672 0.421079 0.359396 
0.301759 0.250002 0.204864 0.166312 0.133854 0.106778 
0.084317 0.065741 0.050401 0.000000 0.000000 0.024212 
0.031034 0.039126 0.048691 0.059962 0.073209 0.088736 
0.106884 0.128027 0.152561 0.180880 0.213342 0.250209 
0.291555 0.337143 0.386264 0.437559 0.488857 0.537113 
0.578529 0.608952 0.624577 0.622814 0.603046 0.566939 
0.518135 0.461403 0.401608 0.342867 0.288099 0.238982 
0.196165 0.159581 0.128742 0.102967 0.081531 0.063749 
0.049017 0.000000 0.000000 0.023050 0.029813 0.037805 
0.047221 0.058283 0.071248 0.086405 0.104079 0.124622 
0.148406 0.175800 0.207134 0.242643 0.282378 0.326088 
0.373066 0.421985 0.470742 0.516407 0.555344 0.583606 
0.597610 0.594967 0.575195 0.539998 0.492936 0.438597 
0.381605 0.325824 0.273957 0.227522 0.187073 0.152503 
0.123325 0.098887 0.078502 0.061532 0.047415 0.000000 
0.000000 0.021479 0.028177 0.036058 0.045308 0.056138 
0.068792 0.083547 0.100709 0.120611 0.143605 0.170036 
0.200209 0.234337 0.272451 0.314291 0.359157 0.405753 
0.452042 0.495200 0.531746 0.557921 0.570351 0.566841 
0.547047 0.512718 0.467349 0.415362 0.361149 0.308326 
0.259377 0.215656 0.177614 0.145100 0.117624 0.094556 
0.075250 0.059108 0.045611 0.000000 0.000000 0.019516 
0.026148 0.033911 0.042981 0.053560 0.065880 0.080204 
0.096824 0.116055 0.138228 0.163670 0.192666 0.225407 
0.261910 0.301911 0.344718 0.389066 0.432979 0.473732 
0.507981 0.532142 0.543033 0.538647 0.518780 0.485242 
0.441484 0.391778 0.340298 0.290416 0.244392 0.203410 
0.167812 0.137394 0.111658 0.089994 0.071792 0.056494 
0.043623 0.000000 0.000000 0.017197 0.023761 0.031399 
0.040278 0.050590 0.062558 0.076429 0.092483 0.111020 
0.132354 0.156793 0.184606 0.215970 0.250892 0.289102 
0.329921 0.372113 0.413758 0.452218 0.484267 0.506479 
0.515850 0.510551 0.490531 0.457676 0.415417 0.367900 
0.319091 0.272122 0.229026 0.190805 0.157686 0.129405 
0.105449 0.085223 0.068149 0.053710 0.041467 0.000000 
0.000000 0.014565 0.021060 0.028568 0.037248 0.047281 
0.058880 0.072283 0.087753 0.105580 0.126064 0.149498 
0.176136 0.206146 0.239526 0.276009 0.314926 0.355068 
0.394562 0.430844 0.460791 0.481109 0.488958 0.482685 
0.462397 0.430087 0.389191 0.343753 0.297545 0.253458 
0.213290 0.177857 0.147255 0.121152 0.099016 0.080262 
0.064341 0.050773 0.039159 0.000000 0.000000 0.011678 
0.018103 0.025476 0.033948 0.043692 0.054910 0.067831 
0.082707 0.099815 0.119445 0.141878 0.167359 0.196047 
0.227938 0.262766 0.299877 0.338082 0.375550 0.409771 
0.437705 0.456171 0.462474 0.455134 0.434437 0.402504 
0.362813 0.319333 0.275651 0.234417 0.197187 0.164572 
0.136530 0.112653 0.092380 0.075133 0.060389 0.047704 
0.036716 0.000000 0.000000 0.008601 0.014954 0.022186 
0.030442 0.039888 0.050715 0.063144 0.077419 0.093806 
0.112584 0.134028 0.158376 0.185782 0.216242 0.249497 
0.284903 0.321291 0.356857 0.389132 0.415135 0.431771 
0.436477 0.427947 0.406661 0.374911 0.336251 0.294600 
0.253374 0.214975 0.180701 0.150948 0.125521 0.103923 
0.085559 0.069857 0.056315 0.044523 0.034156 0.000000 
0.000000 0.005409 0.011682 0.018767 0.026799 0.035937 
0.046366 0.058297 0.071965 0.087631 0.105566 0.126038 
0.149282 0.175451 0.204545 0.236311 0.270117 0.304808 
0.338596 0.369034 0.393172 0.407981 0.411009 0.401128 
0.379040 0.347248 0.309430 0.269480 0.230650 0.195086 
0.163808 0.136977 0.114230 0.094974 0.078574 0.064455 
0.052139 0.041250 0.031498 0.000000 0.000000 0.002178 
0.008364 0.015292 0.023090 0.031912 0.041934 0.053361 
0.066423 0.081372 0.098474 0.117994 0.140166 0.165146 
0.192940 0.223303 0.255614 0.288727 0.320857 0.349558 
0.371884 0.384841 0.386074 0.374639 0.351494 0.319407 
0.282228 0.243858 0.207385 0.174680 0.146464 0.122638 
0.102656 0.085817 0.071441 0.058949 0.047886 0.037906 
0.028758 0.000000 0.000000 -0.001012 0.005073 0.011831 
0.019385 0.027881 0.037490 0.048410 0.060865 0.075102 
0.091384 0.109975 0.131110 0.154949 0.181509 0.210555 
0.241474 0.273124 0.303711 0.330763 0.351311 0.362360 
0.361638 0.348394 0.323892 0.291224 0.254471 0.217572 
0.183445 0.153661 0.128609 0.107902 0.090792 0.076460 
0.064177 0.053361 0.043576 0.034513 0.025956 0.000000 
0.000000 0.000000 0.000000 0.000000 0.000000 0.000000 
0.000000 0.000000 0.000000 0.000000 0.000000 0.000000 
0.000000 0.000000 0.000000 0.000000 0.000000 0.000000 
0.000000 0.000000 0.000000 0.000000 0.000000 0.000000 
0.000000 0.000000 0.000000 0.000000 0.000000 0.000000 
0.000000 0.000000 0.000000 0.000000 0.000000 0.000000 
0.000000 0.000000 0.000000 0.000000 
