# vtk DataFile Version 1.0
vtk output
ASCII
DATASET POLYDATA
POINTS 1600 float
-1.493570 0.014492 -1.489990 -1.347025 0.075952 -1.494527 
-1.205849 0.136071 -1.497751 -1.069981 0.193950 -1.499884 
-0.939360 0.248692 -1.501147 -0.813924 0.299399 -1.501760 
-0.693611 0.345189 -1.501942 -0.578313 0.385740 -1.501840 
-0.467867 0.421406 -1.501520 -0.362107 0.452579 -1.501037 
-0.260866 0.479651 -1.500451 -0.163979 0.503015 -1.499819 
-0.071275 0.523022 -1.499200 0.017452 0.539770 -1.498650 
0.102420 0.553257 -1.498228 0.183846 0.563484 -1.497989 
0.261948 0.570449 -1.497991 0.336945 0.574152 -1.498290 
0.409028 0.574631 -1.498882 0.478341 0.571991 -1.499653 
0.545025 0.566343 -1.500479 0.609220 0.557799 -1.501237 
0.671068 0.546471 -1.501803 0.730703 0.532465 -1.502064 
0.788207 0.515856 -1.502018 0.843630 0.496696 -1.501727 
0.897023 0.475038 -1.501252 0.948437 0.450935 -1.500655 
0.997922 0.424439 -1.499998 1.045616 0.395630 -1.499344 
1.091883 0.364665 -1.498754 1.137123 0.331708 -1.498295 
1.181739 0.296927 -1.498028 1.226132 0.260487 -1.498017 
1.270693 0.222542 -1.498325 1.315675 0.183016 -1.498986 
1.361213 0.141643 -1.500012 1.407439 0.098154 -1.501416 
1.454484 0.052278 -1.503208 1.502480 0.003744 -1.505400 
-1.498064 0.033848 -1.413644 -1.353390 0.095333 -1.416229 
-1.213147 0.155561 -1.418300 -1.077517 0.213739 -1.419880 
-0.946682 0.269077 -1.420992 -0.820821 0.320782 -1.421660 
-0.700112 0.368076 -1.421907 -0.584560 0.410608 -1.421794 
-0.473968 0.448543 -1.421427 -0.368123 0.482073 -1.420917 
-0.266817 0.511395 -1.420370 -0.169838 0.536702 -1.419896 
-0.076978 0.558180 -1.419589 0.011961 0.575965 -1.419448 
0.097173 0.590169 -1.419434 0.178849 0.600907 -1.419510 
0.257185 0.608293 -1.419640 0.332373 0.612441 -1.419785 
0.404589 0.613452 -1.419921 0.473983 0.611399 -1.420047 
0.540698 0.606357 -1.420163 0.604881 0.598397 -1.420271 
0.666676 0.587593 -1.420370 0.726227 0.574014 -1.420461 
0.783655 0.557693 -1.420530 0.839066 0.538645 -1.420557 
0.892569 0.516886 -1.420522 0.944272 0.492428 -1.420406 
0.994283 0.465286 -1.420187 1.042757 0.435516 -1.419871 
1.089972 0.403274 -1.419531 1.136227 0.368737 -1.419250 
1.181823 0.332081 -1.419110 1.227057 0.293480 -1.419196 
1.272222 0.253099 -1.419579 1.317509 0.210914 -1.420163 
1.363021 0.166743 -1.420709 1.408860 0.120398 -1.420972 
1.455129 0.071695 -1.420711 1.501927 0.020446 -1.419681 
-1.498913 0.053249 -1.336832 -1.356177 0.115410 -1.338052 
-1.217011 0.176319 -1.339262 -1.081809 0.235263 -1.340365 
-0.950961 0.291531 -1.341265 -0.824861 0.344410 -1.341866 
-0.703893 0.393199 -1.342074 -0.588168 0.437532 -1.341897 
-0.477471 0.477449 -1.341465 -0.371565 0.513015 -1.340916 
-0.270215 0.544294 -1.340386 -0.173185 0.571351 -1.340014 
-0.080246 0.594261 -1.339911 0.008797 0.613174 -1.340038 
0.094123 0.628269 -1.340297 0.175912 0.639724 -1.340588 
0.254345 0.647717 -1.340815 0.329602 0.652424 -1.340880 
0.401850 0.653982 -1.340744 0.471241 0.652447 -1.340475 
0.537922 0.647870 -1.340152 0.602041 0.640301 -1.339852 
0.663746 0.629791 -1.339654 0.723185 0.616387 -1.339626 
0.780506 0.600102 -1.339753 0.835859 0.580931 -1.339967 
0.889393 0.558869 -1.340200 0.941258 0.533910 -1.340387 
0.991602 0.506050 -1.340460 1.040594 0.475324 -1.340389 
1.088452 0.441880 -1.340241 1.135403 0.405885 -1.340097 
1.181672 0.367503 -1.340042 1.227485 0.326899 -1.340156 
1.273064 0.284233 -1.340510 1.318557 0.239551 -1.340963 
1.364049 0.192803 -1.341199 1.409623 0.143938 -1.340896 
1.455363 0.092907 -1.339733 1.501353 0.039656 -1.337388 
-1.497343 0.072363 -1.259556 -1.356472 0.135701 -1.259919 
-1.218425 0.197738 -1.260535 -1.083768 0.257817 -1.261252 
-0.953069 0.315278 -1.261917 -0.826893 0.369464 -1.262378 
-0.705797 0.419724 -1.262486 -0.589985 0.465689 -1.262221 
-0.479235 0.507331 -1.261723 -0.373301 0.544639 -1.261139 
-0.271937 0.577604 -1.260616 -0.174897 0.606219 -1.260302 
-0.081941 0.630494 -1.260315 0.007123 0.650581 -1.260593 
0.092470 0.666680 -1.261007 0.174275 0.678993 -1.261425 
0.252714 0.687723 -1.261717 0.327962 0.693071 -1.261754 
0.400184 0.695182 -1.261491 0.469530 0.694108 -1.261028 
0.536149 0.689888 -1.260484 0.600188 0.682564 -1.259976 
0.661797 0.672174 -1.259621 0.721124 0.658758 -1.259523 
0.778338 0.642320 -1.259666 0.833616 0.622851 -1.259965 
0.887137 0.600340 -1.260332 0.939077 0.574775 -1.260682 
0.989616 0.546146 -1.260928 1.038930 0.514479 -1.261022 
1.087197 0.479902 -1.261016 1.134596 0.442556 -1.260977 
1.181302 0.402584 -1.260973 1.227494 0.360129 -1.261074 
1.273346 0.315332 -1.261335 1.318978 0.268319 -1.261633 
1.364466 0.219200 -1.261694 1.409883 0.168086 -1.261240 
1.455303 0.115089 -1.259992 1.500799 0.060318 -1.257670 
-1.494583 0.090862 -1.181820 -1.355361 0.155724 -1.181751 
-1.218369 0.219211 -1.182016 -1.084308 0.280693 -1.182453 
-0.953873 0.339540 -1.182901 -0.827765 0.395122 -1.183198 
-0.706668 0.446816 -1.183186 -0.590860 0.494258 -1.182840 
-0.480121 0.537391 -1.182295 -0.374205 0.576178 -1.181692 
-0.272864 0.610581 -1.181177 -0.175851 0.640564 -1.180892 
-0.082927 0.666112 -1.180951 0.006103 0.687366 -1.181285 
0.091413 0.704520 -1.181754 0.173179 0.717771 -1.182221 
0.251577 0.727316 -1.182544 0.326783 0.733349 -1.182587 
0.398962 0.736013 -1.182301 0.468262 0.735357 -1.181797 
0.534829 0.731419 -1.181201 0.598809 0.724238 -1.180639 
0.660347 0.713852 -1.180238 0.719594 0.700298 -1.180112 
0.776728 0.683584 -1.180248 0.831946 0.663703 -1.180560 
0.885443 0.640649 -1.180964 0.937417 0.614414 -1.181373 
0.988063 0.584992 -1.181701 1.037565 0.552406 -1.181895 
1.086078 0.516756 -1.181988 1.133750 0.478155 -1.182027 
1.180728 0.436716 -1.182057 1.227160 0.392553 -1.182125 
1.273194 0.345784 -1.182271 1.318931 0.296612 -1.182420 
1.364443 0.245309 -1.182406 1.409798 0.192152 -1.182057 
1.455063 0.137415 -1.181205 1.500308 0.081374 -1.179677 
-1.491858 0.108412 -1.103627 -1.353928 0.174999 -1.103472 
-1.217828 0.240132 -1.103604 -1.084340 0.303187 -1.103882 
-0.954245 0.363539 -1.104169 -0.828326 0.420563 -1.104326 
-0.707349 0.473642 -1.104218 -0.591640 0.522415 -1.103826 
-0.480987 0.566834 -1.103271 -0.375146 0.606866 -1.102681 
-0.273873 0.642480 -1.102186 -0.176925 0.673643 -1.101915 
-0.084066 0.700347 -1.101969 0.004900 0.722712 -1.102284 
0.090151 0.740911 -1.102730 0.171865 0.755115 -1.103177 
0.250221 0.765497 -1.103495 0.325397 0.772228 -1.103557 
0.397559 0.775436 -1.103316 0.466852 0.775169 -1.102872 
0.533414 0.771470 -1.102340 0.597390 0.764378 -1.101836 
0.658918 0.753936 -1.101474 0.718145 0.740181 -1.101357 
0.775255 0.723130 -1.101477 0.830456 0.702785 -1.101763 
0.883956 0.679148 -1.102141 0.935961 0.652221 -1.102540 
0.986680 0.622007 -1.102887 1.036302 0.588528 -1.103133 
1.084968 0.551860 -1.103292 1.132810 0.512085 -1.103388 
1.179964 0.469289 -1.103445 1.226561 0.423555 -1.103487 
1.272733 0.374976 -1.103535 1.318574 0.323823 -1.103572 
1.364150 0.270507 -1.103545 1.409524 0.215447 -1.103402 
1.454760 0.159060 -1.103090 1.499921 0.101764 -1.102557 
-1.490372 0.124691 -1.024985 -1.353242 0.193051 -1.025009 
-1.217769 0.259902 -1.025199 -1.084764 0.324601 -1.025454 
-0.955041 0.386507 -1.025676 -0.829410 0.444977 -1.025765 
-0.708669 0.499377 -1.025625 -0.593161 0.549351 -1.025250 
-0.482678 0.594875 -1.024742 -0.376980 0.635948 -1.024208 
-0.275828 0.672566 -1.023758 -0.178981 0.704726 -1.023499 
-0.086206 0.732440 -1.023518 0.002693 0.755814 -1.023761 
0.087897 0.774985 -1.024121 0.169586 0.790096 -1.024492 
0.247942 0.801285 -1.024767 0.323145 0.808693 -1.024840 
0.395359 0.812426 -1.024673 0.464722 0.812534 -1.024343 
0.531366 0.809062 -1.023943 0.595426 0.802051 -1.023563 
0.657035 0.791547 -1.023294 0.716332 0.777591 -1.023218 
0.773502 0.760207 -1.023331 0.828761 0.739405 -1.023579 
0.882323 0.715199 -1.023908 0.934401 0.687599 -1.024265 
0.985211 0.656618 -1.024594 1.034945 0.622281 -1.024858 
1.083740 0.584642 -1.025056 1.131724 0.543763 -1.025197 
1.179026 0.499705 -1.025286 1.225772 0.452528 -1.025332 
1.272088 0.402308 -1.025342 1.318064 0.349356 -1.025331 
1.363755 0.294180 -1.025318 1.409217 0.237294 -1.025324 
1.454507 0.179213 -1.025369 1.499680 0.120450 -1.025473 
-1.490554 0.139564 -0.946061 -1.353739 0.209643 -0.946437 
-1.218623 0.278191 -0.946826 -1.085999 0.344530 -0.947175 
-0.956660 0.407982 -0.947428 -0.831398 0.467868 -0.947532 
-0.710995 0.523519 -0.947434 -0.595781 0.574578 -0.947142 
-0.485550 0.621061 -0.946736 -0.380063 0.663008 -0.946301 
-0.279082 0.700457 -0.945921 -0.182367 0.733449 -0.945682 
-0.089686 0.762028 -0.945651 -0.000843 0.786286 -0.945792 
0.084342 0.806330 -0.946029 0.166052 0.822267 -0.946287 
0.244467 0.834203 -0.946489 0.319768 0.842246 -0.946560 
0.392116 0.846481 -0.946472 0.461639 0.846957 -0.946278 
0.528460 0.843717 -0.946038 0.592703 0.836805 -0.945815 
0.654491 0.826267 -0.945669 0.713954 0.812144 -0.945657 
0.771277 0.794466 -0.945775 0.826679 0.773251 -0.945990 
0.880377 0.748520 -0.946267 0.932590 0.720292 -0.946569 
0.983537 0.688588 -0.946863 1.033413 0.653433 -0.947121 
1.082357 0.614872 -0.947339 1.130495 0.572951 -0.947514 
1.177956 0.527717 -0.947645 1.224869 0.479216 -0.947730 
1.271358 0.427511 -0.947770 1.317506 0.372931 -0.947777 
1.363358 0.316028 -0.947780 1.408960 0.257361 -0.947807 
1.454355 0.197488 -0.947884 1.499589 0.136968 -0.948040 
-1.491895 0.153127 -0.867217 -1.355100 0.224820 -0.868009 
-1.220183 0.294993 -0.868660 -1.087886 0.362920 -0.869160 
-0.958953 0.427872 -0.869499 -0.834127 0.489123 -0.869667 
-0.714137 0.545955 -0.869654 -0.599287 0.598006 -0.869481 
-0.489369 0.645337 -0.869208 -0.384144 0.688036 -0.868895 
-0.283371 0.726190 -0.868603 -0.186811 0.759889 -0.868391 
-0.094231 0.789217 -0.868311 -0.005437 0.814254 -0.868345 
0.079752 0.835076 -0.868450 0.161516 0.851759 -0.868585 
0.240034 0.864380 -0.868707 0.315486 0.873014 -0.868773 
0.388029 0.877726 -0.868766 0.457780 0.878561 -0.868712 
0.524850 0.875560 -0.868642 0.589351 0.868767 -0.868585 
[...]
POINT_DATA 1600
SCALARS scalars float
LOOKUP_TABLE default
0.000000 0.000000 0.000000 0.000000 0.000000 0.000000 
0.000000 0.000000 0.000000 0.000000 0.000000 0.000000 
0.000000 0.000000 0.000000 0.000000 0.000000 0.000000 
0.000000 0.000000 0.000000 0.000000 0.000000 0.000000 
0.000000 0.000000 0.000000 0.000000 0.000000 0.000000 
0.000000 0.000000 0.000000 0.000000 0.000000 0.000000 
0.000000 0.000000 0.000000 0.000000 0.000000 -0.095397 
-0.023123 0.021855 0.038104 0.020738 -0.015694 -0.052544 
-0.102586 -0.154789 -0.199844 -0.230460 -0.255928 -0.273432 
-0.285813 -0.297105 -0.310955 -0.331625 -0.363573 -0.404199 
-0.451842 -0.504306 -0.559080 -0.628263 -0.704945 -0.779415 
-0.846519 -0.900741 -0.924406 -0.852500 -0.765161 -0.672308 
-0.581279 -0.496413 -0.494010 -0.522139 -0.503255 -0.429361 
-0.302358 0.000000 0.000000 -0.122452 -0.065058 -0.028445 
-0.015532 -0.031271 -0.067011 -0.107747 -0.160817 -0.217800 
-0.271394 -0.315633 -0.346270 -0.369297 -0.388631 -0.407212 
-0.427471 -0.453046 -0.488275 -0.529054 -0.574510 -0.623386 
-0.674143 -0.748109 -0.830630 -0.906677 -0.969592 -1.013029 
-1.021339 -0.946311 -0.862182 -0.776429 -0.694075 -0.617565 
-0.597992 -0.589102 -0.540048 -0.450909 -0.325397 0.000000 
0.000000 -0.152325 -0.112087 -0.084721 -0.074801 -0.087840 
-0.119847 -0.159743 -0.211800 -0.269895 -0.328504 -0.382799 
-0.421242 -0.453136 -0.482583 -0.511691 -0.542044 -0.576214 
-0.617307 -0.661478 -0.708208 -0.756746 -0.806153 -0.881128 
-0.962737 -1.033418 -1.085880 -1.114018 -1.106023 -1.031439 
-0.950949 -0.869982 -0.791846 -0.717701 -0.669846 -0.617069 
-0.538020 -0.437410 -0.319705 0.000000 0.000000 -0.174177 
-0.155641 -0.140574 -0.135409 -0.146800 -0.174467 -0.211104 
-0.259775 -0.316377 -0.377024 -0.438016 -0.485611 -0.528747 
-0.570865 -0.613258 -0.656748 -0.702659 -0.752564 -0.803600 
-0.855229 -0.906769 -0.957416 -1.030160 -1.104832 -1.164024 
-1.200817 -1.210308 -1.185465 -1.112308 -1.033994 -0.954326 
-0.875425 -0.797729 -0.717667 -0.623796 -0.520527 -0.414000 
-0.308829 0.000000 0.000000 -0.180597 -0.188989 -0.190613 
-0.193627 -0.206202 -0.230876 -0.263629 -0.307945 -0.361539 
-0.422076 -0.487061 -0.544378 -0.600479 -0.657442 -0.715580 
-0.774838 -0.835191 -0.896838 -0.957932 -1.017632 -1.074930 
-1.128704 -1.196593 -1.259534 -1.302467 -1.319771 -1.308453 
-1.266354 -1.192879 -1.113417 -1.030582 -0.945816 -0.859377 
-0.749301 -0.623954 -0.506325 -0.402549 -0.317824 0.000000 
0.000000 -0.175540 -0.203730 -0.220053 -0.232560 -0.249620 
-0.274267 -0.304113 -0.344131 -0.393352 -0.450623 -0.514477 
-0.576712 -0.640953 -0.708011 -0.777514 -0.848760 -0.920792 
-0.993097 -1.064350 -1.133182 -1.197944 -1.256801 -1.320127 
-1.371086 -1.397963 -1.396740 -1.366412 -1.308812 -1.232404 
-1.148669 -1.060041 -0.968183 -0.873915 -0.746968 -0.609221 
-0.490796 -0.395328 -0.326367 0.000000 0.000000 -0.174680 
-0.207758 -0.231447 -0.251676 -0.275090 -0.302324 -0.330326 
-0.366166 -0.409545 -0.459953 -0.516547 -0.576029 -0.639575 
-0.707350 -0.778956 -0.853635 -0.930195 -1.008104 -1.086204 
-1.162582 -1.234857 -1.300304 -1.361670 -1.404278 -1.419516 
-1.404625 -1.360143 -1.290618 -1.209929 -1.121354 -1.028127 
-0.932816 -0.837187 -0.710601 -0.578628 -0.468602 -0.379549 
-0.310832 0.000000 0.000000 -0.175251 -0.212022 -0.242922 
-0.271709 -0.303172 -0.334582 -0.361215 -0.393027 -0.430315 
-0.473160 -0.521337 -0.576996 -0.638799 -0.706196 -0.778752 
-0.855634 -0.935464 -1.017794 -1.101546 -1.184362 -1.263204 
-1.334482 -1.393812 -1.428665 -1.433376 -1.406360 -1.349514 
-1.269316 -1.182729 -1.088484 -0.990689 -0.892747 -0.797204 
-0.676855 -0.556095 -0.456845 -0.374810 -0.306244 0.000000 
0.000000 -0.178804 -0.217957 -0.255500 -0.293078 -0.333507 
-0.370050 -0.395597 -0.423401 -0.454361 -0.489185 -0.528333 
-0.579408 -0.638689 -0.704897 -0.777530 -0.855647 -0.937671 
-1.023217 -1.111258 -1.199081 -1.283086 -1.358905 -1.415981 
-1.443765 -1.439191 -1.401694 -1.334301 -1.244853 -1.152184 
-1.052631 -0.951151 -0.851881 -0.757999 -0.646563 -0.538346 
-0.449434 -0.373111 -0.303475 0.000000 0.000000 -0.187089 
-0.227066 -0.270266 -0.316253 -0.365741 -0.407701 -0.432267 
-0.455989 -0.480461 -0.507125 -0.537246 -0.583267 -0.639463 
-0.703880 -0.775898 -0.854414 -0.937631 -1.025215 -1.116107 
-1.207328 -1.294819 -1.373561 -1.428062 -1.449493 -1.436911 
-1.390581 -1.314403 -1.217238 -1.119549 -1.016024 -0.912393 
-0.813429 -0.722829 -0.620432 -0.522881 -0.441752 -0.368598 
-0.296162 0.000000 0.000000 -0.202175 -0.240951 -0.288359 
-0.341738 -0.399496 -0.446426 -0.469965 -0.489510 -0.507508 
-0.526291 -0.548076 -0.588818 -0.641513 -0.703657 -0.774440 
-0.852527 -0.935921 -1.024426 -1.116750 -1.209714 -1.298906 
-1.378805 -1.430345 -1.446105 -1.426734 -1.373123 -1.289792 
-1.186489 -1.085915 -0.980568 -0.876850 -0.780081 -0.694395 
-0.599070 -0.507760 -0.430311 -0.357012 -0.279715 0.000000 
0.000000 -0.209202 -0.242776 -0.286393 -0.337840 -0.395951 
-0.444781 -0.470452 -0.492912 -0.514110 -0.535877 -0.559926 
-0.602396 -0.656092 -0.718645 -0.789432 -0.867255 -0.950482 
-1.039614 -1.132753 -1.226604 -1.316564 -1.396862 -1.446355 
-1.458804 -1.436011 -1.379413 -1.294061 -1.190760 -1.095324 
-0.995428 -0.896808 -0.804039 -0.720450 -0.619508 -0.516842 
-0.428066 -0.345598 -0.263258 0.000000 0.000000 -0.212320 
-0.240771 -0.279359 -0.326791 -0.382870 -0.432424 -0.461286 
-0.488661 -0.515699 -0.543438 -0.572800 -0.618187 -0.673174 
-0.735882 -0.805986 -0.882575 -0.964699 -1.053876 -1.147273 
-1.241455 -1.331643 -1.411867 -1.459967 -1.470608 -1.446330 
-1.388989 -1.304008 -1.203272 -1.116060 -1.023791 -0.931273 
-0.842184 -0.758985 -0.646698 -0.526642 -0.422770 -0.329140 
-0.241033 0.000000 0.000000 -0.212747 -0.237096 -0.270919 
-0.313981 -0.367170 -0.416881 -0.449346 -0.482250 -0.515871 
-0.550396 -0.585894 -0.634092 -0.689847 -0.751969 -0.820523 
-0.895010 -0.975326 -1.064020 -1.157252 -1.251410 -1.341508 
-1.421375 -1.468610 -1.478588 -1.454255 -1.397757 -1.314735 
-1.218029 -1.140121 -1.055838 -0.969094 -0.882776 -0.798654 
-0.672808 -0.534075 -0.414976 -0.310382 -0.216363 0.000000 
0.000000 -0.209761 -0.231463 -0.261132 -0.299850 -0.349759 
-0.399324 -0.435620 -0.474359 -0.514877 -0.556425 -0.598110 
-0.648884 -0.704922 -0.765848 -0.832272 -0.904279 -0.982606 
-1.070447 -1.163267 -1.257216 -1.347062 -1.426415 -1.473249 
-1.483525 -1.460342 -1.406030 -1.326318 -1.234768 -1.166242 
-1.089449 -1.007522 -0.922722 -0.836328 -0.696638 -0.540311 
-0.407342 -0.292954 -0.193767 0.000000 0.000000 -0.202800 
-0.223633 -0.250090 -0.284869 -0.331578 -0.380954 -0.421085 
-0.465634 -0.512912 -0.561106 -0.608201 -0.661184 -0.717099 
-0.776448 -0.840597 -0.910418 -0.987244 -1.074014 -1.166278 
-1.259893 -1.349339 -1.427991 -1.474729 -1.486028 -1.464940 
-1.413900 -1.338605 -1.253016 -1.193083 -1.122550 -1.043968 
-0.959194 -0.869248 -0.717149 -0.546306 -0.402060 -0.279922 
-0.177215 0.000000 0.000000 -0.191157 -0.215101 -0.241759 
-0.275122 -0.319978 -0.368777 -0.410541 -0.457748 -0.508162 
-0.559346 -0.608585 -0.663261 -0.720153 -0.780129 -0.845061 
-0.916276 -0.994577 -1.080858 -1.172304 -1.264655 -1.352305 
-1.428612 -1.474066 -1.485606 -1.465979 -1.417566 -1.345845 
-1.264684 -1.209454 -1.140995 -1.061966 -0.974547 -0.880182 
-0.720609 -0.543356 -0.395256 -0.271475 -0.169525 0.000000 
0.000000 -0.179206 -0.210949 -0.243268 -0.279885 -0.325398 
-0.372301 -0.410146 -0.452126 -0.496893 -0.542881 -0.588243 
-0.644465 -0.706324 -0.773550 -0.847286 -0.928011 -1.013927 
-1.101691 -1.192036 -1.281103 -1.363733 -1.433824 -1.474177 
-1.482324 -1.460505 -1.410845 -1.338361 -1.256316 -1.198106 
-1.124209 -1.038659 -0.945201 -0.846854 -0.688500 -0.518108 
-0.379075 -0.264519 -0.170227 0.000000 0.000000 -0.170097 
-0.208053 -0.245302 -0.285044 -0.331465 -0.376501 -0.409803 
-0.445711 -0.483781 -0.523377 -0.563618 -0.621510 -0.688993 
-0.764379 -0.848034 -0.939583 -1.034405 -1.124395 -1.214296 
-1.300529 -1.378294 -1.441985 -1.476150 -1.479524 -1.454241 
-1.402299 -1.328340 -1.244930 -1.182748 -1.102750 -1.010422 
-0.911074 -0.809193 -0.654895 -0.494529 -0.366633 -0.262836 
-0.177548 0.000000 0.000000 -0.163263 -0.206085 -0.247483 
-0.290051 -0.337424 -0.380568 -0.408939 -0.438318 -0.469204 
-0.501959 -0.536769 -0.596391 -0.669670 -0.753388 -0.847099 
-0.949589 -1.053707 -1.147033 -1.237682 -1.322190 -1.395960 
-1.453761 -1.480578 -1.477427 -1.447070 -1.391545 -1.315244 
-1.230089 -1.163855 -1.077964 -0.979308 -0.874689 -0.769956 
-0.621431 -0.472685 -0.356810 -0.264289 -0.188364 0.000000 
0.000000 -0.158221 -0.204799 -0.249517 -0.294418 -0.342534 
-0.383670 -0.406970 -0.429779 -0.453589 -0.479835 -0.509844 
-0.571163 -0.649916 -0.741413 -0.844354 -0.956703 -1.069549 
-1.167596 -1.260646 -1.345143 -1.416471 -1.469565 -1.487889 
-1.476236 -1.439001 -1.378457 -1.298886 -1.211710 -1.142079 
-1.051210 -0.947230 -0.838291 -0.731506 -0.589431 -0.452527 
-0.348547 -0.266991 -0.200019 0.000000 0.000000 -0.154508 
-0.203984 -0.251164 -0.297703 -0.346061 -0.384948 -0.403304 
-0.419949 -0.437422 -0.458280 -0.485049 -0.547915 -0.631333 
-0.729361 -0.839780 -0.959718 -1.079713 -1.184021 -1.281487 
-1.368234 -1.439332 -1.489567 -1.498371 -1.476162 -1.430196 
-1.363179 -1.279411 -1.190017 -1.118198 -1.023836 -0.915981 
-0.803921 -0.695929 -0.559987 -0.433901 -0.340820 -0.269252 
-0.210254 0.000000 0.000000 -0.168937 -0.214875 -0.259149 
-0.303699 -0.351061 -0.389740 -0.408514 -0.426000 -0.444300 
-0.465525 -0.491770 -0.551340 -0.629649 -0.721699 -0.826118 
-0.941028 -1.059883 -1.170589 -1.276670 -1.372465 -1.451067 
-1.505347 -1.506805 -1.473718 -1.418387 -1.344873 -1.258156 
-1.169697 -1.101897 -1.011386 -0.906875 -0.797532 -0.691640 
-0.560072 -0.439082 -0.349530 -0.279983 -0.221586 0.000000 
0.000000 -0.187456 -0.228098 -0.268056 -0.309647 -0.355731 
-0.395257 -0.417061 -0.438704 -0.461283 -0.485867 -0.513475 
-0.567407 -0.636045 -0.716367 -0.808455 -0.912023 -1.025127 
-1.141776 -1.257677 -1.365071 -1.454526 -1.516221 -1.511998 
-1.468904 -1.405021 -1.325904 -1.237279 -1.151067 -1.089714 
-1.006130 -0.908154 -0.804240 -0.702102 -0.573455 -0.454069 
-0.364195 -0.292826 -0.231606 0.000000 0.000000 -0.202249 
-0.238611 -0.275033 -0.314145 -0.359175 -0.399786 -0.425049 
-0.451311 -0.478707 -0.507292 -0.537037 -0.585052 -0.643563 
-0.711672 -0.790831 -0.882220 -0.988554 -1.110264 -1.234932 
-1.353004 -1.452756 -1.521824 -1.513467 -1.462496 -1.391961 
-1.308620 -1.218764 -1.134652 -1.079059 -1.002178 -0.910910 
-0.812835 -0.714913 -0.588280 -0.468946 -0.377571 -0.303524 
-0.238872 0.000000 0.000000 -0.212972 -0.246329 -0.280189 
-0.317488 -0.361906 -0.403894 -0.432757 -0.463685 -0.495877 
-0.528411 -0.560234 -0.602441 -0.651157 -0.707567 -0.774459 
-0.854407 -0.954112 -1.079192 -1.210413 -1.336729 -1.444564 
-1.519520 -1.509476 -1.454249 -1.380048 -1.294498 -1.204365 
-1.122113 -1.070640 -0.999377 -0.914284 -0.821962 -0.728459 
-0.603210 -0.482822 -0.389149 -0.311926 -0.243591 0.000000 
0.000000 -0.219339 -0.251158 -0.283599 -0.319943 -0.364406 
-0.408096 -0.440380 -0.475589 -0.512019 -0.547809 -0.580920 
-0.617911 -0.658007 -0.704234 -0.760703 -0.831358 -0.925555 
-1.051486 -1.185971 -1.316751 -1.428979 -1.507057 -1.498563 
-1.443974 -1.369982 -1.284758 -1.195545 -1.114874 -1.065127 
-0.997673 -0.917578 -0.830422 -0.741230 -0.616967 -0.494857 
-0.398463 -0.317915 -0.245983 0.000000 0.000000 -0.219020 
-0.250567 -0.283129 -0.320084 -0.365961 -0.411825 -0.446680 
-0.484822 -0.523947 -0.561586 -0.595060 -0.629345 -0.664912 
-0.705790 -0.756996 -0.823443 -0.914731 -1.037626 -1.169767 
-1.298346 -1.408340 -1.484377 -1.480807 -1.432875 -1.364004 
-1.282324 -1.195438 -1.115690 -1.063926 -0.996935 -0.919083 
-0.835031 -0.748799 -0.624572 -0.499965 -0.400562 -0.317033 
-0.242548 0.000000 0.000000 -0.205378 -0.234717 -0.268859 
-0.309748 -0.360343 -0.409106 -0.443724 -0.480556 -0.518292 
-0.555515 -0.590647 -0.631691 -0.677145 -0.729303 -0.791721 
-0.867803 -0.962554 -1.076052 -1.193983 -1.305680 -1.398887 
-1.461490 -1.463392 -1.428062 -1.370308 -1.296358 -1.213069 
-1.131700 -1.070332 -0.995587 -0.912015 -0.823997 -0.734953 
-0.606645 -0.476817 -0.373270 -0.287652 -0.214003 0.000000 
0.000000 -0.194898 -0.220498 -0.255040 -0.299033 -0.353811 
-0.404899 -0.438487 -0.473247 -0.508777 -0.544604 -0.580138 
-0.628470 -0.684891 -0.749830 -0.825550 -0.914056 -1.014324 
-1.116772 -1.218462 -1.311012 -1.385084 -1.431942 -1.441389 
-1.422136 -1.378395 -1.314212 -1.235512 -1.152095 -1.078296 
-0.993468 -0.902476 -0.809496 -0.717394 -0.586224 -0.452662 
-0.345743 -0.257971 -0.184240 0.000000 0.000000 -0.188353 
-0.208776 -0.242473 -0.288422 -0.346308 -0.398857 -0.430900 
-0.463193 -0.496132 -0.530072 -0.565282 -0.620731 -0.688071 
-0.765944 -0.855526 -0.957587 -1.064659 -1.156298 -1.241991 
-1.315593 -1.370531 -1.401175 -1.418574 -1.416465 -1.387918 
-1.334530 -1.260982 -1.175217 -1.087002 -0.990320 -0.890530 
-0.791706 -0.696225 -0.563740 -0.428504 -0.319446 -0.229943 
-0.155861 0.000000 0.000000 -0.186747 -0.200500 -0.232018 
-0.278491 -0.337897 -0.390737 -0.420984 -0.450749 -0.481122 
-0.513160 -0.547869 -0.609692 -0.686906 -0.776592 -0.879040 
-0.994000 -1.108191 -1.191039 -1.263216 -1.320517 -1.358672 
-1.374567 -1.398802 -1.412481 -1.398487 -1.355830 -1.287612 
-1.199519 -1.095891 -0.986153 -0.876451 -0.770930 -0.671590 
-0.539516 -0.405131 -0.295596 -0.205283 -0.131273 0.000000 
0.000000 -0.191408 -0.196713 -0.224576 -0.269873 -0.328729 
-0.380382 -0.408823 -0.436313 -0.464525 -0.495113 -0.529699 
-0.596702 -0.681886 -0.781087 -0.893873 -1.019201 -1.139647 
-1.217293 -1.280570 -1.326627 -1.352736 -1.357456 -1.386048 
-1.411705 -1.409665 -1.376476 -1.313431 -1.223573 -1.104679 
-0.981220 -0.860651 -0.747500 -0.643570 -0.513722 -0.383149 
-0.275264 -0.185592 -0.112738 0.000000 0.000000 -0.160813 
-0.172002 -0.198738 -0.237820 -0.287571 -0.331281 -0.356078 
-0.381779 -0.409375 -0.439805 -0.473934 -0.540541 -0.624429 
-0.721509 -0.831706 -0.954435 -1.071874 -1.144498 -1.203009 
-1.244861 -1.267611 -1.270179 -1.303983 -1.341058 -1.352779 
-1.332996 -1.280108 -1.192985 -1.060491 -0.921480 -0.787525 
-0.665977 -0.560549 -0.444448 -0.335945 -0.249242 -0.177194 
-0.115946 0.000000 0.000000 -0.103047 -0.131841 -0.159695 
-0.189762 -0.225701 -0.258274 -0.279075 -0.303715 -0.331810 
-0.362903 -0.396406 -0.458938 -0.535594 -0.623106 -0.722190 
-0.833174 -0.941004 -1.010568 -1.069000 -1.113407 -1.140672 
-1.148920 -1.183793 -1.225055 -1.246071 -1.238795 -1.198703 
-1.120378 -0.982763 -0.830778 -0.682575 -0.550675 -0.442619 
-0.342363 -0.264158 -0.210829 -0.169517 -0.130322 0.000000 
0.000000 -0.048232 -0.092966 -0.121370 -0.142746 -0.165858 
-0.188481 -0.205917 -0.229846 -0.258582 -0.290361 -0.323294 
-0.381463 -0.450591 -0.528089 -0.615171 -0.712736 -0.810750 
-0.883656 -0.949322 -1.004199 -1.043754 -1.064246 -1.090139 
-1.119947 -1.136613 -1.131946 -1.099899 -1.033553 -0.906578 
-0.750500 -0.591255 -0.448562 -0.335422 -0.243804 -0.188805 
-0.164061 -0.150967 -0.134481 0.000000 0.000000 0.007645 
-0.051059 -0.080594 -0.094706 -0.106741 -0.120277 -0.133726 
-0.156559 -0.185663 -0.217824 -0.249763 -0.303626 -0.365247 
-0.432488 -0.506889 -0.589724 -0.678479 -0.762250 -0.843786 
-0.918630 -0.979986 -1.020869 -1.025333 -1.024484 -1.019637 
-1.003921 -0.971203 -0.917739 -0.824104 -0.678384 -0.514975 
-0.363767 -0.246094 -0.155149 -0.113439 -0.109053 -0.117081 
-0.119165 0.000000 0.000000 0.069382 -0.001539 -0.034408 
-0.044263 -0.047894 -0.052478 -0.059548 -0.079790 -0.108421 
-0.140386 -0.170653 -0.220962 -0.275682 -0.332831 -0.394248 
-0.461584 -0.542665 -0.646255 -0.753828 -0.859830 -0.954167 
-1.024725 -0.991900 -0.937429 -0.890922 -0.847253 -0.800746 
-0.756951 -0.726517 -0.612798 -0.457247 -0.303106 -0.183946 
-0.082879 -0.041005 -0.046364 -0.065685 -0.078138 0.000000 
0.000000 0.000000 0.000000 0.000000 0.000000 0.000000 
0.000000 0.000000 0.000000 0.000000 0.000000 0.000000 
0.000000 0.000000 0.000000 0.000000 0.000000 0.000000 
0.000000 0.000000 0.000000 0.000000 0.000000 0.000000 
0.000000 0.000000 0.000000 0.000000 0.000000 0.000000 
0.000000 0.000000 0.000000 0.000000 0.000000 0.000000 
0.000000 0.000000 0.000000 0.000000 
