# vtk DataFile Version 1.0
vtk output
ASCII
DATASET POLYDATA
POINTS 1600 float
-1.448310 0.040321 -1.463420 -1.319688 0.098899 -1.449690 
-1.192824 0.155286 -1.442940 -1.067966 0.209138 -1.441280 
-0.945362 0.260109 -1.442820 -0.825261 0.307854 -1.445668 
-0.707910 0.352032 -1.447966 -0.593613 0.392453 -1.448834 
-0.482733 0.429111 -1.448575 -0.375639 0.462008 -1.447566 
-0.272699 0.491147 -1.446180 -0.174282 0.516531 -1.444793 
-0.080671 0.538173 -1.443737 0.008369 0.556134 -1.443085 
0.093273 0.570498 -1.442813 0.174475 0.581345 -1.442896 
0.252410 0.588760 -1.443307 0.327511 0.592824 -1.444022 
0.400061 0.593634 -1.444966 0.470079 0.591312 -1.445984 
0.537555 0.585980 -1.446908 0.602484 0.577765 -1.447575 
0.664855 0.566788 -1.447817 0.724676 0.553165 -1.447496 
0.782100 0.536904 -1.446728 0.837363 0.517955 -1.445776 
0.890701 0.496270 -1.444906 0.942350 0.471797 -1.444379 
0.992549 0.444488 -1.444462 1.041488 0.414425 -1.445229 
1.089247 0.382045 -1.446262 1.135883 0.347838 -1.447061 
1.181458 0.312296 -1.447129 1.226028 0.275911 -1.445966 
1.269670 0.239125 -1.443185 1.312700 0.201534 -1.440261 
1.355641 0.162033 -1.440216 1.399021 0.119496 -1.446118 
1.443368 0.072796 -1.461037 1.489210 0.020808 -1.488040 
-1.419932 0.071227 -1.395970 -1.305271 0.122768 -1.387392 
-1.187126 0.175031 -1.383305 -1.066966 0.227084 -1.382457 
-0.946263 0.277995 -1.383593 -0.826485 0.326833 -1.385460 
-0.709086 0.372677 -1.386825 -0.594998 0.414952 -1.387138 
-0.484521 0.453503 -1.386671 -0.377917 0.488199 -1.385746 
-0.275448 0.518909 -1.384683 -0.177376 0.545502 -1.383805 
-0.083899 0.567883 -1.383384 0.005198 0.586180 -1.383392 
0.090284 0.600606 -1.383687 0.171727 0.611373 -1.384127 
0.249897 0.618693 -1.384569 0.325163 0.622781 -1.384871 
0.397771 0.623806 -1.384959 0.467759 0.621870 -1.384874 
0.535140 0.617064 -1.384669 0.599930 0.609482 -1.384398 
0.662143 0.599217 -1.384115 0.721809 0.586345 -1.383870 
0.779117 0.570797 -1.383698 0.834345 0.552416 -1.383620 
0.887772 0.531047 -1.383659 0.939677 0.506534 -1.383837 
0.990339 0.478719 -1.384176 1.039957 0.447640 -1.384654 
1.088516 0.413834 -1.385132 1.135971 0.377920 -1.385455 
1.182275 0.340517 -1.385464 1.227380 0.302244 -1.385004 
1.271247 0.263677 -1.383963 1.313964 0.224660 -1.383013 
1.355726 0.184429 -1.383474 1.396730 0.142202 -1.386686 
1.437173 0.097197 -1.393990 1.477252 0.048631 -1.406724 
-1.404237 0.096027 -1.325870 -1.297058 0.144679 -1.320835 
-1.183733 0.195299 -1.318552 -1.066327 0.246750 -1.318218 
-0.946904 0.297893 -1.319027 -0.827530 0.347589 -1.320175 
-0.710247 0.394711 -1.320871 -0.596303 0.438518 -1.320792 
-0.485995 0.478733 -1.320180 -0.379561 0.515109 -1.319310 
-0.277239 0.547396 -1.318458 -0.179268 0.575346 -1.317898 
-0.085824 0.598767 -1.317855 0.003294 0.617813 -1.318246 
0.088437 0.632770 -1.318867 0.169950 0.643925 -1.319516 
0.248185 0.651564 -1.319991 0.323486 0.655974 -1.320090 
0.396090 0.657366 -1.319739 0.466037 0.655826 -1.319083 
0.533348 0.651423 -1.318291 0.598042 0.644227 -1.317531 
0.660138 0.634310 -1.316971 0.719676 0.621726 -1.316765 
0.776869 0.606368 -1.316900 0.832028 0.588040 -1.317275 
0.885468 0.566545 -1.317784 0.937504 0.541683 -1.318323 
0.988447 0.513257 -1.318790 1.038505 0.481283 -1.319109 
1.087601 0.446332 -1.319291 1.135612 0.409065 -1.319357 
1.182416 0.370145 -1.319329 1.227890 0.330233 -1.319229 
1.271918 0.289955 -1.319090 1.314469 0.249322 -1.319131 
1.355591 0.207837 -1.319725 1.395328 0.164987 -1.321248 
1.433729 0.120259 -1.324079 1.470840 0.073141 -1.328595 
-1.398089 0.116133 -1.253467 -1.293594 0.164919 -1.250692 
-1.182192 0.215745 -1.249539 -1.066084 0.267525 -1.249497 
-0.947472 0.319173 -1.250059 -0.828557 0.369602 -1.250717 
-0.711516 0.417738 -1.250971 -0.597686 0.462824 -1.250646 
-0.487400 0.504494 -1.249952 -0.380927 0.542406 -1.249125 
-0.278539 0.576216 -1.248399 -0.180507 0.605580 -1.248011 
-0.087035 0.630225 -1.248145 0.002078 0.650303 -1.248698 
0.087192 0.666127 -1.249451 0.168662 0.678013 -1.250185 
0.246849 0.686275 -1.250684 0.322107 0.691228 -1.250730 
0.394676 0.693097 -1.250250 0.464592 0.691955 -1.249423 
0.531866 0.687859 -1.248454 0.596512 0.680865 -1.247547 
0.658544 0.671029 -1.246907 0.717994 0.658395 -1.246717 
0.775091 0.642852 -1.246952 0.830175 0.624208 -1.247468 
0.883589 0.602268 -1.248122 0.935672 0.576838 -1.248769 
0.986767 0.547725 -1.249263 1.037088 0.514941 -1.249518 
1.086518 0.479044 -1.249590 1.134883 0.440681 -1.249561 
1.182013 0.400498 -1.249515 1.227735 0.359140 -1.249532 
1.271884 0.317224 -1.249691 1.314396 0.274867 -1.250018 
1.355293 0.231770 -1.250494 1.394598 0.187621 -1.251098 
1.432337 0.142111 -1.251812 1.468532 0.094927 -1.252614 
-1.398353 0.132953 -1.179107 -1.293420 0.183778 -1.177637 
-1.182045 0.236024 -1.177120 -1.066274 0.288798 -1.177227 
-0.948153 0.341206 -1.177627 -0.829725 0.392356 -1.177992 
-0.713016 0.441361 -1.177998 -0.599305 0.487544 -1.177552 
-0.488979 0.530481 -1.176838 -0.382371 0.569762 -1.176055 
-0.279816 0.604979 -1.175403 -0.181646 0.635723 -1.175081 
-0.088119 0.661661 -1.175248 0.000971 0.682923 -1.175801 
0.086009 0.699816 -1.176538 0.167379 0.712650 -1.177258 
0.245465 0.721731 -1.177760 0.320651 0.727368 -1.177842 
0.393188 0.729780 -1.177438 0.463099 0.729032 -1.176709 
0.530382 0.725176 -1.175842 0.595037 0.718260 -1.175025 
0.657061 0.708336 -1.174443 0.716476 0.695441 -1.174265 
0.773519 0.679483 -1.174470 0.828550 0.660299 -1.174931 
0.881932 0.637724 -1.175518 0.934027 0.611594 -1.176103 
0.985195 0.581744 -1.176558 1.035661 0.548199 -1.176801 
1.085283 0.511477 -1.176880 1.133861 0.472175 -1.176862 
1.181197 0.430893 -1.176813 1.227089 0.388228 -1.176800 
1.271348 0.344754 -1.176887 1.313924 0.300645 -1.177073 
1.354891 0.255743 -1.177306 1.394323 0.209877 -1.177531 
1.432295 0.162880 -1.177694 1.468883 0.114582 -1.177741 
-1.401894 0.147895 -1.103137 -1.295081 0.201543 -1.102342 
-1.182840 0.255790 -1.102154 -1.066935 0.309957 -1.102341 
-0.949131 0.363364 -1.102669 -0.831194 0.415333 -1.102905 
-0.714871 0.465187 -1.102821 -0.601318 0.512353 -1.102363 
-0.490977 0.556387 -1.101688 -0.384250 0.596847 -1.100965 
-0.281535 0.633296 -1.100362 -0.183235 0.665293 -1.100048 
-0.089663 0.692476 -1.100157 -0.000606 0.714944 -1.100605 
0.084348 0.732975 -1.101227 0.165616 0.746846 -1.101858 
0.243610 0.756835 -1.102330 0.318744 0.763218 -1.102480 
0.391283 0.766196 -1.102247 0.461237 0.765832 -1.101751 
0.528585 0.762177 -1.101135 0.593310 0.755281 -1.100538 
0.655393 0.745193 -1.100100 0.714839 0.731954 -1.099948 
0.771889 0.715496 -1.100073 0.826918 0.695694 -1.100391 
0.880300 0.672418 -1.100814 0.932411 0.645542 -1.101256 
0.983626 0.614938 -1.101632 1.034177 0.580644 -1.101882 
1.083913 0.543135 -1.102015 1.132625 0.502955 -1.102052 
1.180100 0.460648 -1.102014 1.226129 0.416758 -1.101923 
1.270512 0.371811 -1.101801 1.313236 0.326005 -1.101698 
1.354445 0.279270 -1.101687 1.394285 0.231526 -1.101841 
1.432905 0.182694 -1.102233 1.470453 0.132694 -1.102937 
-1.405622 0.162347 -1.025905 -1.297141 0.218498 -1.025477 
-1.184125 0.274703 -1.025492 -1.068099 0.330398 -1.025765 
-0.950589 0.385024 -1.026113 -0.833119 0.438017 -1.026352 
-0.717202 0.488818 -1.026302 -0.603880 0.536925 -1.025923 
-0.493635 0.581906 -1.025346 -0.386911 0.623333 -1.024713 
-0.284155 0.660778 -1.024165 -0.185814 0.693813 -1.023841 
-0.092242 0.722079 -1.023857 -0.003222 0.745648 -1.024153 
0.081680 0.764752 -1.024607 0.162899 0.779626 -1.025095 
0.240867 0.790504 -1.025496 0.316019 0.797618 -1.025685 
0.388628 0.801144 -1.025614 0.458689 0.801146 -1.025359 
0.526168 0.797681 -1.025011 0.591031 0.790805 -1.024660 
0.653246 0.780574 -1.024396 0.712803 0.767034 -1.024301 
0.769942 0.750136 -1.024374 0.825045 0.729780 -1.024572 
0.878493 0.705862 -1.024846 0.930671 0.678280 -1.025150 
0.981958 0.646932 -1.025439 1.032593 0.611867 -1.025673 
1.082426 0.573532 -1.025837 1.131250 0.532435 -1.025919 
1.178854 0.489089 -1.025905 1.225028 0.444004 -1.025783 
1.269577 0.397673 -1.025545 1.312510 0.350304 -1.025277 
1.354012 0.301872 -1.025143 1.394271 0.252341 -1.025305 
1.433477 0.201677 -1.025930 1.471819 0.149846 -1.027182 
-1.407948 0.176939 -0.947816 -1.298833 0.234742 -0.947633 
-1.185630 0.292535 -0.947818 -1.069744 0.349731 -0.948212 
-0.952581 0.405744 -0.948656 -0.835546 0.459987 -0.948990 
-0.720033 0.511877 -0.949057 -0.607026 0.560918 -0.948821 
-0.497014 0.606727 -0.948389 -0.390458 0.648924 -0.947877 
-0.287820 0.687129 -0.947402 -0.189561 0.720965 -0.947078 
-0.096047 0.750112 -0.947001 -0.007061 0.774615 -0.947138 
0.077834 0.794660 -0.947409 0.159078 0.810434 -0.947730 
0.237109 0.822122 -0.948021 0.312365 0.829909 -0.948200 
0.385118 0.833941 -0.948231 0.455353 0.834290 -0.948155 
0.523027 0.831022 -0.948023 0.588094 0.824202 -0.947884 
0.650509 0.813896 -0.947788 0.710255 0.800159 -0.947780 
0.767569 0.782950 -0.947862 0.822832 0.762174 -0.948011 
0.876428 0.737733 -0.948203 0.928741 0.709530 -0.948415 
0.980154 0.677469 -0.948625 1.030906 0.641603 -0.948810 
1.080859 0.602375 -0.948954 1.129811 0.560291 -0.949043 
1.177562 0.515857 -0.949061 1.223911 0.469581 -0.948992 
1.268671 0.421951 -0.948828 1.311849 0.373182 -0.948631 
1.353622 0.323256 -0.948532 1.394168 0.272150 -0.948659 
1.433668 0.219840 -0.949145 1.472300 0.166302 -0.950118 
-1.409092 0.191393 -0.869343 -1.300197 0.250151 -0.869303 
-1.187296 0.309199 -0.869617 -1.071773 0.367822 -0.870136 
-0.955009 0.425306 -0.870707 -0.838387 0.480937 -0.871179 
-0.723275 0.534004 -0.871405 -0.610641 0.583975 -0.871341 
-0.500966 0.630531 -0.871075 -0.394702 0.673362 -0.870700 
-0.292301 0.712164 -0.870310 -0.194214 0.746627 -0.869999 
-0.100803 0.776492 -0.869845 -0.011852 0.801787 -0.869839 
0.073070 0.822650 -0.869936 0.154393 0.839220 -0.870092 
0.232551 0.851635 -0.870262 0.307973 0.860035 -0.870402 
0.380925 0.864535 -0.870488 0.451386 0.865216 -0.870538 
0.519301 0.862155 -0.870569 0.584621 0.855427 -0.870602 
[...]
POINT_DATA 1600
SCALARS scalars float
LOOKUP_TABLE default
0.000000 0.000000 0.000000 0.000000 0.000000 0.000000 
0.000000 0.000000 0.000000 0.000000 0.000000 0.000000 
0.000000 0.000000 0.000000 0.000000 0.000000 0.000000 
0.000000 0.000000 0.000000 0.000000 0.000000 0.000000 
0.000000 0.000000 0.000000 0.000000 0.000000 0.000000 
0.000000 0.000000 0.000000 0.000000 0.000000 0.000000 
0.000000 0.000000 0.000000 0.000000 0.000000 -0.125813 
-0.028453 -0.003398 -0.038728 -0.126188 -0.238026 -0.337261 
-0.432415 -0.512504 -0.570049 -0.600792 -0.607555 -0.594582 
-0.566942 -0.529114 -0.485387 -0.440609 -0.407398 -0.394906 
-0.407876 -0.449123 -0.520833 -0.660993 -0.839709 -1.024514 
-1.195979 -1.331421 -1.386344 -1.262758 -1.096178 -0.919541 
-0.760393 -0.639754 -0.651098 -0.791551 -0.944432 -1.050480 
-1.087366 0.000000 0.000000 -0.164621 -0.099573 -0.076463 
-0.088343 -0.135369 -0.207736 -0.283262 -0.364711 -0.443169 
-0.511644 -0.565638 -0.589777 -0.597168 -0.594871 -0.586166 
-0.573030 -0.557200 -0.546765 -0.546800 -0.561455 -0.594648 
-0.650343 -0.790981 -0.970778 -1.144946 -1.290396 -1.384126 
-1.383739 -1.206647 -1.032568 -0.874986 -0.743212 -0.643355 
-0.685922 -0.828953 -0.940837 -0.971178 -0.895733 0.000000 
0.000000 -0.201024 -0.163296 -0.138235 -0.129699 -0.144578 
-0.185788 -0.242546 -0.311769 -0.386946 -0.462608 -0.535005 
-0.576670 -0.603509 -0.622803 -0.636697 -0.645982 -0.651850 
-0.661979 -0.677755 -0.702247 -0.739108 -0.792624 -0.926609 
-1.089518 -1.234860 -1.340486 -1.388115 -1.346411 -1.160571 
-1.000776 -0.868955 -0.765085 -0.687987 -0.724651 -0.817501 
-0.867288 -0.852551 -0.761214 0.000000 0.000000 -0.241612 
-0.222203 -0.194308 -0.169067 -0.157869 -0.173210 -0.213351 
-0.270479 -0.340245 -0.418991 -0.504284 -0.563012 -0.609527 
-0.649908 -0.684957 -0.714455 -0.739730 -0.770182 -0.804365 
-0.844072 -0.891794 -0.950724 -1.070686 -1.202146 -1.305561 
-1.363786 -1.366078 -1.295012 -1.124916 -0.989893 -0.885098 
-0.805143 -0.744488 -0.750441 -0.772617 -0.759523 -0.712008 
-0.632845 0.000000 0.000000 -0.282728 -0.275228 -0.246154 
-0.208722 -0.177107 -0.170732 -0.194940 -0.239593 -0.302091 
-0.380433 -0.473591 -0.548556 -0.615433 -0.678011 -0.735406 
-0.786158 -0.831303 -0.882135 -0.935761 -0.992529 -1.053107 
-1.118487 -1.218625 -1.310652 -1.366830 -1.377465 -1.340026 
-1.249765 -1.103828 -0.994369 -0.911928 -0.847363 -0.792119 
-0.758431 -0.716975 -0.658657 -0.597156 -0.546070 0.000000 
0.000000 -0.301067 -0.299807 -0.276405 -0.241137 -0.206727 
-0.192643 -0.207050 -0.241215 -0.294158 -0.365504 -0.455818 
-0.537373 -0.615753 -0.692513 -0.765325 -0.831430 -0.890553 
-0.954280 -1.020497 -1.088678 -1.158194 -1.228291 -1.313835 
-1.378193 -1.402936 -1.383852 -1.323596 -1.224493 -1.093836 
-0.995655 -0.919406 -0.855561 -0.795764 -0.737415 -0.669383 
-0.600807 -0.547757 -0.525564 0.000000 0.000000 -0.285085 
-0.288581 -0.278935 -0.261799 -0.244810 -0.240013 -0.253273 
-0.280755 -0.323024 -0.381231 -0.457505 -0.532851 -0.609209 
-0.686771 -0.762659 -0.833347 -0.896541 -0.961960 -1.030548 
-1.101881 -1.175271 -1.249704 -1.334182 -1.393760 -1.412326 
-1.386608 -1.320147 -1.216275 -1.082437 -0.976514 -0.890446 
-0.817387 -0.751669 -0.694950 -0.639651 -0.588138 -0.549648 
-0.532445 0.000000 0.000000 -0.263714 -0.274437 -0.279783 
-0.282190 -0.285189 -0.292198 -0.305034 -0.326657 -0.358905 
-0.404128 -0.465599 -0.534020 -0.607541 -0.685020 -0.763249 
-0.838150 -0.905081 -0.970554 -1.039353 -1.111237 -1.185635 
-1.261569 -1.347960 -1.408992 -1.427785 -1.400748 -1.331297 
-1.221700 -1.074990 -0.955103 -0.855940 -0.772608 -0.701301 
-0.655974 -0.625829 -0.599186 -0.578491 -0.565243 0.000000 
0.000000 -0.241781 -0.260923 -0.281719 -0.304008 -0.327962 
-0.348270 -0.361590 -0.378166 -0.401008 -0.433601 -0.480307 
-0.541348 -0.611325 -0.687839 -0.767458 -0.845659 -0.915505 
-0.979962 -1.047612 -1.118501 -1.192346 -1.268443 -1.358659 
-1.424749 -1.447270 -1.421494 -1.350102 -1.233449 -1.069314 
-0.933320 -0.820919 -0.728648 -0.654054 -0.624529 -0.622369 
-0.620165 -0.613893 -0.599136 0.000000 0.000000 -0.223815 
-0.251447 -0.287468 -0.329101 -0.373552 -0.407588 -0.422377 
-0.434713 -0.448829 -0.469477 -0.502308 -0.555703 -0.621459 
-0.696092 -0.775927 -0.856004 -0.927464 -0.990371 -1.056248 
-1.125563 -1.198479 -1.274753 -1.369617 -1.441845 -1.468891 
-1.444509 -1.370425 -1.245282 -1.063790 -0.912973 -0.789642 
-0.691584 -0.617585 -0.604050 -0.624805 -0.639739 -0.639598 
-0.615985 0.000000 0.000000 -0.214646 -0.249474 -0.299808 
-0.359578 -0.422866 -0.469924 -0.487076 -0.495936 -0.502150 
-0.512004 -0.532789 -0.578386 -0.639196 -0.710938 -0.789583 
-0.869610 -0.940919 -1.002248 -1.066406 -1.134437 -1.207106 
-1.284765 -1.384021 -1.461086 -1.490971 -1.465963 -1.386979 
-1.252035 -1.057302 -0.895750 -0.765701 -0.666422 -0.598189 
-0.597276 -0.629211 -0.648367 -0.642393 -0.601342 0.000000 
0.000000 -0.221602 -0.254906 -0.302249 -0.358932 -0.420835 
-0.469089 -0.489184 -0.502896 -0.514835 -0.530232 -0.555299 
-0.602779 -0.663577 -0.734057 -0.810767 -0.888719 -0.959016 
-1.022114 -1.088987 -1.160325 -1.236485 -1.317329 -1.416195 
-1.489217 -1.512738 -1.480141 -1.393887 -1.254614 -1.065317 
-0.912374 -0.792435 -0.703239 -0.643600 -0.635148 -0.642905 
-0.634905 -0.605294 -0.550429 0.000000 0.000000 -0.234171 
-0.262089 -0.301126 -0.348797 -0.403363 -0.449231 -0.473047 
-0.494208 -0.515806 -0.541550 -0.576149 -0.627532 -0.688629 
-0.757033 -0.830036 -0.903484 -0.970982 -1.036663 -1.107689 
-1.184063 -1.265350 -1.350500 -1.446652 -1.511851 -1.525840 
-1.484074 -1.391174 -1.251541 -1.077459 -0.940837 -0.836381 
-0.759948 -0.708454 -0.680972 -0.649541 -0.604400 -0.545884 
-0.475245 0.000000 0.000000 -0.247994 -0.268848 -0.297903 
-0.334906 -0.380348 -0.422762 -0.450857 -0.480288 -0.512593 
-0.549961 -0.595616 -0.651090 -0.712012 -0.777443 -0.845490 
-0.912996 -0.976583 -1.044682 -1.119993 -1.201697 -1.288402 
-1.377972 -1.470496 -1.526935 -1.531177 -1.480997 -1.383164 
-1.245960 -1.091197 -0.973306 -0.885241 -0.821077 -0.775913 
-0.724271 -0.649642 -0.566389 -0.479085 -0.391627 0.000000 
0.000000 -0.259961 -0.273379 -0.291975 -0.317780 -0.353499 
-0.392115 -0.424692 -0.462599 -0.505788 -0.554881 -0.611558 
-0.671021 -0.731469 -0.793510 -0.856227 -0.917652 -0.977293 
-1.047191 -1.126217 -1.212650 -1.304060 -1.397150 -1.485906 
-1.534355 -1.530311 -1.473782 -1.373444 -1.240990 -1.106160 
-1.006576 -0.933552 -0.879488 -0.837846 -0.761244 -0.646098 
-0.528543 -0.416027 -0.314177 0.000000 0.000000 -0.267359 
-0.274242 -0.283118 -0.298300 -0.324780 -0.359801 -0.396595 
-0.442547 -0.495943 -0.555721 -0.621815 -0.684849 -0.744727 
-0.803556 -0.861628 -0.918354 -0.975246 -1.045901 -1.127374 
-1.217026 -1.311398 -1.406070 -1.491539 -1.534201 -1.524706 
-1.464925 -1.365034 -1.239180 -1.121819 -1.037575 -0.976226 
-0.928707 -0.887189 -0.788832 -0.641426 -0.497158 -0.365942 
-0.255707 0.000000 0.000000 -0.264122 -0.269305 -0.274243 
-0.284286 -0.305650 -0.337979 -0.375890 -0.424826 -0.482284 
-0.546319 -0.615871 -0.681436 -0.742816 -0.802634 -0.861802 
-0.920286 -0.978909 -1.048930 -1.129553 -1.217919 -1.310281 
-1.401872 -1.484371 -1.524867 -1.514385 -1.455472 -1.358688 
-1.238742 -1.130114 -1.051857 -0.993394 -0.945522 -0.900485 
-0.790133 -0.628567 -0.473765 -0.336647 -0.227082 0.000000 
0.000000 -0.250135 -0.261336 -0.272885 -0.288433 -0.312638 
-0.343603 -0.375830 -0.416447 -0.464543 -0.519721 -0.582429 
-0.649523 -0.718171 -0.789087 -0.861742 -0.934307 -1.002644 
-1.071128 -1.146013 -1.225803 -1.308102 -1.389473 -1.468112 
-1.509683 -1.502369 -1.447420 -1.353905 -1.234508 -1.119411 
-1.031611 -0.962699 -0.905661 -0.854874 -0.747666 -0.597534 
-0.455955 -0.330919 -0.230367 0.000000 0.000000 -0.238652 
-0.255480 -0.273416 -0.294605 -0.322246 -0.352114 -0.377894 
-0.409262 -0.446847 -0.491752 -0.545864 -0.614656 -0.691434 
-0.774677 -0.862461 -0.951227 -1.031216 -1.098408 -1.167551 
-1.238384 -1.309790 -1.379665 -1.454219 -1.497254 -1.493591 
-1.443049 -1.353020 -1.233400 -1.107647 -1.007330 -0.926102 
-0.858772 -0.801325 -0.702278 -0.571468 -0.449597 -0.342266 
-0.255603 0.000000 0.000000 -0.229622 -0.251629 -0.275523 
-0.302120 -0.333248 -0.362035 -0.381008 -0.402751 -0.429439 
-0.463733 -0.509027 -0.579682 -0.664758 -0.760381 -0.863258 
-0.968242 -1.060388 -1.127634 -1.192387 -1.255410 -1.316738 
-1.375556 -1.445183 -1.488374 -1.487159 -1.440053 -1.352833 
-1.232357 -1.094221 -0.980358 -0.886401 -0.808716 -0.744520 
-0.656646 -0.549647 -0.451189 -0.364627 -0.294059 0.000000 
0.000000 -0.223130 -0.249802 -0.279028 -0.310407 -0.344475 
-0.371873 -0.384058 -0.396373 -0.412586 -0.437024 -0.474751 
-0.547378 -0.640249 -0.747226 -0.863619 -0.982815 -1.086120 
-1.155701 -1.218653 -1.276462 -1.330100 -1.379911 -1.443251 
-1.483817 -1.482387 -1.436533 -1.350702 -1.228921 -1.078878 
-0.952115 -0.846175 -0.758841 -0.688405 -0.613010 -0.531451 
-0.457740 -0.392894 -0.338685 0.000000 0.000000 -0.219320 
-0.250083 -0.283832 -0.318971 -0.354801 -0.380122 -0.385893 
-0.389574 -0.396576 -0.413011 -0.445850 -0.520444 -0.619969 
-0.736311 -0.863246 -0.992733 -1.104637 -1.179547 -1.244373 
-1.300934 -1.350796 -1.395185 -1.450443 -1.484316 -1.478771 
-1.430988 -1.344538 -1.221195 -1.061645 -0.924065 -0.807825 
-0.712128 -0.636411 -0.573273 -0.516273 -0.466602 -0.422734 
-0.383861 0.000000 0.000000 -0.239448 -0.268956 -0.300038 
-0.332050 -0.365283 -0.389916 -0.397610 -0.404577 -0.415255 
-0.434785 -0.469234 -0.540048 -0.632240 -0.739294 -0.856368 
-0.977122 -1.086179 -1.169733 -1.246337 -1.315296 -1.375685 
-1.426449 -1.474190 -1.495509 -1.478888 -1.423628 -1.334271 
-1.211985 -1.052150 -0.913637 -0.796183 -0.699297 -0.622694 
-0.570042 -0.531222 -0.497656 -0.465994 -0.433670 0.000000 
0.000000 -0.264758 -0.291060 -0.316805 -0.343196 -0.372331 
-0.397288 -0.411035 -0.426800 -0.447103 -0.475080 -0.514777 
-0.578619 -0.656456 -0.745169 -0.842408 -0.944613 -1.044261 
-1.137580 -1.230027 -1.317653 -1.395794 -1.459434 -1.500038 
-1.506236 -1.475928 -1.411433 -1.318742 -1.199103 -1.044477 
-0.910493 -0.796721 -0.702574 -0.627730 -0.583247 -0.557059 
-0.533940 -0.509015 -0.478172 0.000000 0.000000 -0.283664 
-0.307456 -0.328529 -0.349959 -0.375592 -0.401485 -0.421886 
-0.446869 -0.477173 -0.514065 -0.559699 -0.615971 -0.678634 
-0.748169 -0.824624 -0.907019 -0.995878 -1.098233 -1.205706 
-1.311553 -1.407607 -1.484856 -1.519388 -1.511804 -1.469148 
-1.396393 -1.300726 -1.183696 -1.035725 -0.907836 -0.799289 
-0.709310 -0.637468 -0.598447 -0.579911 -0.563166 -0.542053 
-0.510929 0.000000 0.000000 -0.294021 -0.316673 -0.334544 
-0.352492 -0.376031 -0.403741 -0.430732 -0.464428 -0.503921 
-0.548778 -0.599419 -0.648230 -0.696500 -0.748063 -0.805231 
-0.869416 -0.948054 -1.057125 -1.176555 -1.297295 -1.408290 
-1.497216 -1.528476 -1.511479 -1.460078 -1.381283 -1.283302 
-1.168248 -1.026765 -0.905518 -0.803152 -0.718464 -0.650706 
-0.614033 -0.597445 -0.582354 -0.561795 -0.528849 0.000000 
0.000000 -0.294147 -0.317548 -0.334422 -0.351117 -0.374669 
-0.405185 -0.437955 -0.478947 -0.525734 -0.576357 -0.629683 
-0.671994 -0.708335 -0.745167 -0.786848 -0.836980 -0.907560 
-1.019417 -1.145681 -1.275448 -1.395700 -1.492110 -1.524547 
-1.505074 -1.450281 -1.368531 -1.269043 -1.154835 -1.018369 
-0.903463 -0.807720 -0.729164 -0.666434 -0.628691 -0.607738 
-0.588933 -0.565086 -0.528392 0.000000 0.000000 -0.279097 
-0.304134 -0.322892 -0.341962 -0.368902 -0.403094 -0.438926 
-0.483262 -0.532816 -0.584807 -0.637316 -0.676554 -0.707926 
-0.738712 -0.774310 -0.819545 -0.886690 -0.995065 -1.119255 
-1.247615 -1.366909 -1.463096 -1.502067 -1.489495 -1.438665 
-1.358220 -1.258374 -1.143456 -1.009364 -0.899692 -0.810411 
-0.738209 -0.680553 -0.636683 -0.602757 -0.572837 -0.540847 
-0.499342 0.000000 0.000000 -0.236530 -0.258526 -0.281735 
-0.309458 -0.345717 -0.383431 -0.414130 -0.450244 -0.490632 
-0.534738 -0.582942 -0.630048 -0.676673 -0.726418 -0.781810 
-0.844629 -0.919090 -1.014545 -1.119326 -1.225276 -1.323280 
-1.403819 -1.451744 -1.456194 -1.418732 -1.345632 -1.247215 
-1.129419 -0.993482 -0.886599 -0.802346 -0.734938 -0.679254 
-0.619498 -0.557471 -0.502779 -0.454593 -0.410424 0.000000 
0.000000 -0.198404 -0.219301 -0.247199 -0.283303 -0.328810 
-0.369853 -0.394812 -0.422414 -0.453353 -0.488857 -0.531012 
-0.586432 -0.649205 -0.719378 -0.797155 -0.881577 -0.966405 
-1.046262 -1.128716 -1.209133 -1.282416 -1.343358 -1.402624 
-1.428765 -1.408349 -1.344654 -1.247867 -1.125398 -0.983548 
-0.876661 -0.795702 -0.732527 -0.679791 -0.606627 -0.517868 
-0.437510 -0.369163 -0.314360 0.000000 0.000000 -0.168138 
-0.187890 -0.219573 -0.262827 -0.316414 -0.360141 -0.379370 
-0.398722 -0.420521 -0.447536 -0.483253 -0.546926 -0.625683 
-0.716289 -0.817056 -0.924608 -1.021579 -1.085866 -1.145817 
-1.200221 -1.247677 -1.286790 -1.357000 -1.406383 -1.405162 
-1.352766 -1.258557 -1.130739 -0.978951 -0.868645 -0.788169 
-0.727217 -0.676628 -0.594159 -0.484015 -0.380635 -0.292452 
-0.225970 0.000000 0.000000 -0.149946 -0.166025 -0.199396 
-0.247696 -0.307151 -0.352407 -0.366439 -0.378326 -0.391889 
-0.411359 -0.441589 -0.513103 -0.606825 -0.716554 -0.838940 
-0.968498 -1.077832 -1.129093 -1.169052 -1.199590 -1.222493 
-1.239542 -1.317866 -1.388827 -1.407153 -1.367636 -1.277731 
-1.145062 -0.979213 -0.861410 -0.777639 -0.715603 -0.664593 
-0.578173 -0.455777 -0.335422 -0.231481 -0.158167 0.000000 
0.000000 -0.149655 -0.155899 -0.187393 -0.237799 -0.299962 
-0.345064 -0.354856 -0.360531 -0.367349 -0.381055 -0.408071 
-0.486773 -0.593752 -0.720139 -0.860872 -1.008579 -1.128695 
-1.171763 -1.196831 -1.208254 -1.210342 -1.207400 -1.288854 
-1.376351 -1.412449 -1.386911 -1.303926 -1.168260 -0.983920 
-0.853708 -0.761934 -0.694361 -0.638652 -0.554493 -0.432522 
-0.304819 -0.193018 -0.123039 0.000000 0.000000 -0.143809 
-0.159670 -0.194048 -0.240543 -0.294699 -0.333675 -0.342774 
-0.350192 -0.360071 -0.377032 -0.406373 -0.486371 -0.593172 
-0.718134 -0.856767 -1.002486 -1.120540 -1.158458 -1.176630 
-1.179498 -1.171954 -1.159465 -1.243621 -1.346859 -1.405872 
-1.404587 -1.339696 -1.205542 -0.988852 -0.824527 -0.702408 
-0.612155 -0.545139 -0.486090 -0.413418 -0.330277 -0.248302 
-0.189027 0.000000 0.000000 -0.121059 -0.173361 -0.215990 
-0.253154 -0.290778 -0.319399 -0.330537 -0.345704 -0.366181 
-0.393487 -0.429581 -0.505841 -0.601326 -0.710105 -0.829925 
-0.956616 -1.060987 -1.096443 -1.114714 -1.118805 -1.112708 
-1.101737 -1.185380 -1.297897 -1.378650 -1.407323 -1.371404 
-1.249321 -0.998386 -0.785938 -0.615588 -0.486697 -0.398295 
-0.371378 -0.379177 -0.386869 -0.377430 -0.338814 0.000000 
0.000000 -0.090626 -0.188093 -0.241161 -0.268277 -0.288606 
-0.306963 -0.320427 -0.343771 -0.375410 -0.413759 -0.457344 
-0.528795 -0.610966 -0.700818 -0.798155 -0.900916 -0.988280 
-1.026102 -1.050907 -1.064067 -1.068024 -1.066988 -1.141355 
-1.247559 -1.336097 -1.385675 -1.377585 -1.277236 -1.011380 
-0.757682 -0.538345 -0.366931 -0.252896 -0.248150 -0.325654 
-0.420525 -0.489601 -0.484720 0.000000 0.000000 -0.067368 
-0.198906 -0.264791 -0.284962 -0.290124 -0.298936 -0.313763 
-0.344712 -0.387001 -0.435702 -0.485680 -0.551873 -0.619952 
-0.689457 -0.762109 -0.837788 -0.906239 -0.951125 -0.989291 
-1.020326 -1.044370 -1.063393 -1.118856 -1.200294 -1.277579 
-1.331091 -1.340196 -1.266277 -1.019420 -0.742853 -0.480205 
-0.266374 -0.128012 -0.132017 -0.252284 -0.403531 -0.530412 
-0.580680 0.000000 0.000000 -0.088222 -0.210647 -0.284595 
-0.303878 -0.298631 -0.298077 -0.311316 -0.348025 -0.399436 
-0.456713 -0.510621 -0.572182 -0.626933 -0.676203 -0.723494 
-0.770636 -0.819678 -0.876151 -0.934711 -0.993185 -1.048738 
-1.099994 -1.125939 -1.161065 -1.203425 -1.236456 -1.241452 
-1.189762 -1.009626 -0.742790 -0.451433 -0.199619 -0.041441 
-0.032125 -0.150965 -0.306898 -0.454092 -0.591762 0.000000 
0.000000 0.000000 0.000000 0.000000 0.000000 0.000000 
0.000000 0.000000 0.000000 0.000000 0.000000 0.000000 
0.000000 0.000000 0.000000 0.000000 0.000000 0.000000 
0.000000 0.000000 0.000000 0.000000 0.000000 0.000000 
0.000000 0.000000 0.000000 0.000000 0.000000 0.000000 
0.000000 0.000000 0.000000 0.000000 0.000000 0.000000 
0.000000 0.000000 0.000000 0.000000 
