# vtk DataFile Version 1.0
vtk output
ASCII
DATASET POLYDATA
POINTS 1600 float
-0.996988 0.009400 -0.997647 -0.901986 0.048706 -0.999100 
-0.809061 0.086147 -1.000135 -0.718641 0.121739 -1.000810 
-0.631150 0.155496 -1.001185 -0.547013 0.187430 -1.001319 
-0.466646 0.217553 -1.001270 -0.390128 0.245715 -1.001076 
-0.317132 0.271578 -1.000753 -0.247309 0.294794 -1.000315 
-0.180306 0.315013 -0.999776 -0.115775 0.331887 -0.999149 
-0.053411 0.345155 -0.998455 0.006795 0.355116 -0.997760 
0.064743 0.362283 -0.997146 0.120332 0.367165 -0.996694 
0.173460 0.370274 -0.996487 0.224028 0.372119 -0.996605 
0.272063 0.372917 -0.997059 0.317812 0.372376 -0.997737 
0.361547 0.370152 -0.998512 0.403538 0.365899 -0.999258 
0.444058 0.359273 -0.999848 0.483363 0.349977 -1.000172 
0.521569 0.338174 -1.000250 0.558712 0.324287 -1.000180 
0.594828 0.308746 -1.000061 0.629952 0.291977 -0.999990 
0.664119 0.274408 -1.000067 0.697368 0.256261 -1.000335 
0.729742 0.237225 -1.000697 0.761288 0.216899 -1.001034 
0.792050 0.194884 -1.001225 0.822075 0.170781 -1.001151 
0.851417 0.144228 -1.000705 0.880304 0.115506 -1.000018 
0.909100 0.085432 -0.999422 0.938178 0.054835 -0.999250 
0.967910 0.024547 -0.999837 0.998665 -0.004603 -1.001520 
-0.997941 0.022093 -0.941224 -0.901509 0.064057 -0.942696 
-0.808259 0.104463 -0.944448 -0.718259 0.143004 -0.946212 
-0.631579 0.179372 -0.947723 -0.548289 0.213259 -0.948714 
-0.468453 0.244361 -0.948925 -0.392015 0.272526 -0.948334 
-0.318771 0.297787 -0.947203 -0.248504 0.320186 -0.945813 
-0.181002 0.339763 -0.944443 -0.116051 0.356562 -0.943373 
-0.053462 0.370638 -0.942839 0.006792 0.382125 -0.942806 
0.064675 0.391192 -0.943138 0.120153 0.398003 -0.943697 
0.173192 0.402725 -0.944347 0.223758 0.405525 -0.944949 
0.271904 0.406489 -0.945419 0.317837 0.405569 -0.945761 
0.361780 0.402703 -0.945990 0.403956 0.397829 -0.946119 
0.444588 0.390885 -0.946163 0.483888 0.381820 -0.946137 
0.521964 0.370698 -0.946065 0.558868 0.357646 -0.945981 
0.594648 0.342795 -0.945915 0.629354 0.326272 -0.945900 
0.663037 0.308209 -0.945967 0.695768 0.288679 -0.946120 
0.727680 0.267620 -0.946293 0.758918 0.244945 -0.946405 
0.789622 0.220569 -0.946377 0.819936 0.194404 -0.946132 
0.850000 0.166384 -0.945602 0.879890 0.136746 -0.944950 
0.909637 0.105986 -0.944522 0.939266 0.074604 -0.944675 
0.968804 0.043101 -0.945762 0.998277 0.011981 -0.948137 
-0.999236 0.034847 -0.887639 -0.901991 0.078757 -0.888997 
-0.808390 0.121113 -0.890779 -0.718369 0.161504 -0.892655 
-0.631866 0.199520 -0.894296 -0.548816 0.234750 -0.895370 
-0.469156 0.266793 -0.895558 -0.392774 0.295512 -0.894830 
-0.319503 0.321094 -0.893509 -0.249173 0.343745 -0.891937 
-0.181613 0.363670 -0.890458 -0.116652 0.381074 -0.889415 
-0.054137 0.396140 -0.889092 0.005980 0.408906 -0.889413 
0.063704 0.419354 -0.890162 0.119044 0.427467 -0.891123 
0.172005 0.433228 -0.892080 0.222595 0.436619 -0.892818 
0.270878 0.437670 -0.893223 0.317018 0.436490 -0.893354 
0.361191 0.433197 -0.893287 0.403570 0.427908 -0.893101 
0.444331 0.420741 -0.892872 0.483643 0.411803 -0.892674 
0.521615 0.401085 -0.892532 0.558325 0.388518 -0.892447 
0.593852 0.374028 -0.892420 0.628272 0.357544 -0.892451 
0.661663 0.338994 -0.892539 0.694129 0.318360 -0.892670 
0.725843 0.295759 -0.892789 0.756989 0.271333 -0.892835 
0.787751 0.245223 -0.892745 0.818313 0.217571 -0.892460 
0.848851 0.188518 -0.891930 0.879362 0.158204 -0.891315 
0.909700 0.126764 -0.890949 0.939715 0.094337 -0.891172 
0.969256 0.061060 -0.892322 0.998173 0.027071 -0.894739 
-1.000628 0.047414 -0.836097 -0.903044 0.092722 -0.837238 
-0.809134 0.136291 -0.838582 -0.718848 0.177753 -0.839912 
-0.632139 0.216743 -0.841010 -0.548958 0.252894 -0.841658 
-0.469254 0.285847 -0.841643 -0.392917 0.315495 -0.840966 
-0.319766 0.342028 -0.839880 -0.249615 0.365658 -0.838652 
-0.182278 0.386594 -0.837551 -0.117571 0.405046 -0.836845 
-0.055322 0.421195 -0.836753 0.004537 0.435029 -0.837196 
0.062038 0.446463 -0.837979 0.117215 0.455416 -0.838906 
0.170097 0.461801 -0.839782 0.220719 0.465538 -0.840415 
0.269145 0.466645 -0.840703 0.315497 0.465322 -0.840717 
0.359906 0.461787 -0.840541 0.402499 0.456257 -0.840260 
0.443407 0.448951 -0.839960 0.482756 0.440061 -0.839721 
0.520664 0.429533 -0.839567 0.557245 0.417174 -0.839493 
0.592609 0.402788 -0.839491 0.626870 0.386179 -0.839556 
0.660139 0.367152 -0.839682 0.692546 0.345634 -0.839849 
0.724269 0.321871 -0.840003 0.755490 0.296159 -0.840087 
0.786395 0.268796 -0.840040 0.817167 0.240080 -0.839806 
0.847978 0.210291 -0.839335 0.878801 0.179436 -0.838768 
0.909443 0.147293 -0.838396 0.939706 0.113634 -0.838520 
0.969390 0.078230 -0.839437 0.998299 0.040853 -0.841445 
-1.001871 0.059548 -0.785803 -0.904280 0.105870 -0.786654 
-0.810168 0.150192 -0.787311 -0.719573 0.192266 -0.787757 
-0.632531 0.231844 -0.787973 -0.549078 0.268677 -0.787943 
-0.469247 0.302523 -0.787651 -0.392957 0.333299 -0.787140 
-0.319992 0.361120 -0.786525 -0.250127 0.386110 -0.785924 
-0.183138 0.408396 -0.785454 -0.118799 0.428102 -0.785235 
-0.056904 0.445334 -0.785360 0.002641 0.460064 -0.785771 
0.059884 0.472214 -0.786350 0.114877 0.481708 -0.786982 
0.167669 0.488468 -0.787550 0.218311 0.492418 -0.787938 
0.266865 0.493598 -0.788089 0.313416 0.492247 -0.788053 
0.358053 0.488627 -0.787889 0.400863 0.482999 -0.787656 
0.441933 0.475624 -0.787413 0.481356 0.466731 -0.787217 
0.519257 0.456239 -0.787088 0.555785 0.443887 -0.787030 
0.591087 0.429416 -0.787044 0.625310 0.412564 -0.787132 
0.658602 0.393069 -0.787296 0.691113 0.370834 -0.787521 
0.722998 0.346187 -0.787751 0.754413 0.319522 -0.787922 
0.785514 0.291237 -0.787973 0.816457 0.261728 -0.787839 
0.847390 0.231361 -0.787467 0.878295 0.200002 -0.786961 
0.909024 0.167100 -0.786558 0.939420 0.132093 -0.786499 
0.969331 0.094418 -0.787023 0.998602 0.053512 -0.788370 
-1.002720 0.071001 -0.735962 -0.905311 0.118115 -0.736482 
-0.811173 0.163011 -0.736421 -0.720421 0.205558 -0.735962 
-0.633172 0.245627 -0.735292 -0.549539 0.283090 -0.734595 
-0.469634 0.317818 -0.734054 -0.393408 0.349749 -0.733753 
-0.320618 0.378899 -0.733655 -0.251010 0.405288 -0.733718 
-0.184332 0.428937 -0.733900 -0.120329 0.449866 -0.734157 
-0.058767 0.468090 -0.734450 0.000469 0.483581 -0.734751 
0.057449 0.496299 -0.735038 0.112243 0.506201 -0.735288 
0.164920 0.513247 -0.735479 0.215550 0.517395 -0.735589 
0.264197 0.518711 -0.735612 0.310916 0.517447 -0.735564 
0.355759 0.513871 -0.735468 0.398779 0.508256 -0.735344 
0.440030 0.500870 -0.735214 0.479571 0.491950 -0.735098 
0.517537 0.481399 -0.735013 0.554106 0.468930 -0.734974 
0.589453 0.454255 -0.734996 0.623757 0.437085 -0.735093 
0.657193 0.417132 -0.735279 0.689923 0.394291 -0.735550 
0.722070 0.368937 -0.735847 0.753745 0.341521 -0.736104 
0.785066 0.312496 -0.736254 0.816145 0.282314 -0.736230 
0.847093 0.251388 -0.735972 0.877928 0.219459 -0.735548 
0.908596 0.185712 -0.735128 0.939040 0.149313 -0.734887 
0.969203 0.109432 -0.734998 0.999029 0.065235 -0.735635 
-1.002936 0.081531 -0.685794 -0.905759 0.129378 -0.685971 
-0.811833 0.174940 -0.685373 -0.721272 0.218135 -0.684304 
-0.634188 0.258883 -0.683070 -0.550697 0.297102 -0.681974 
-0.470906 0.332713 -0.681315 -0.394773 0.365654 -0.681194 
-0.322069 0.395886 -0.681473 -0.252556 0.423374 -0.682000 
-0.185997 0.448081 -0.682623 -0.122153 0.469969 -0.683190 
-0.060799 0.489004 -0.683569 -0.001803 0.505161 -0.683758 
0.054937 0.518420 -0.683806 0.109519 0.528760 -0.683758 
0.162045 0.536162 -0.683662 0.212614 0.540605 -0.683566 
0.261302 0.542168 -0.683496 0.308138 0.541102 -0.683448 
0.353151 0.537672 -0.683413 0.396367 0.532148 -0.683383 
0.437814 0.524797 -0.683349 0.477529 0.515851 -0.683304 
0.515648 0.505206 -0.683260 0.552365 0.492569 -0.683239 
0.587874 0.477640 -0.683262 0.622370 0.460124 -0.683353 
0.656047 0.439723 -0.683533 0.689068 0.416331 -0.683804 
0.721520 0.390347 -0.684113 0.753475 0.362251 -0.684399 
0.785007 0.332522 -0.684599 0.816189 0.301639 -0.684654 
0.847092 0.270037 -0.684506 0.877780 0.237374 -0.684188 
0.908312 0.202663 -0.683806 0.938742 0.164901 -0.683467 
0.969127 0.123082 -0.683279 0.999525 0.076202 -0.683351 
-1.002491 0.091046 -0.634958 -0.905538 0.139656 -0.634803 
-0.812069 0.186094 -0.633941 -0.722092 0.230235 -0.632679 
-0.635617 0.271951 -0.631327 -0.552650 0.311116 -0.630193 
-0.473200 0.347605 -0.629580 -0.397194 0.381339 -0.629575 
-0.324468 0.412295 -0.630011 -0.254851 0.440452 -0.630702 
-0.188173 0.465792 -0.631465 -0.124264 0.488293 -0.632114 
-0.062957 0.507936 -0.632493 -0.004102 0.524690 -0.632611 
0.052442 0.538523 -0.632542 0.106817 0.549402 -0.632360 
0.159164 0.557296 -0.632137 0.209625 0.562173 -0.631948 
0.258296 0.564102 -0.631833 0.305197 0.563329 -0.631779 
0.350338 0.560121 -0.631767 0.393730 0.554741 -0.631775 
0.435384 0.547454 -0.631785 0.475322 0.538492 -0.631779 
0.513678 0.527748 -0.631764 0.550646 0.514928 -0.631759 
0.586423 0.499732 -0.631784 0.621205 0.481864 -0.631859 
0.655189 0.461024 -0.632004 0.688533 0.437111 -0.632221 
0.721293 0.410527 -0.632474 0.753510 0.381759 -0.632715 
0.785226 0.351296 -0.632900 0.816480 0.319622 -0.632984 
0.847318 0.287176 -0.632923 0.877845 0.253582 -0.632724 
0.908221 0.217790 -0.632437 0.938607 0.178726 -0.632111 
0.969161 0.135320 -0.631797 1.000044 0.086499 -0.631543 
-1.001614 0.099638 -0.583647 -0.904917 0.149042 -0.583189 
-0.812085 0.196497 -0.582271 -0.722958 0.241771 -0.581125 
-0.637379 0.284631 -0.579980 -0.555188 0.324847 -0.579066 
-0.476229 0.362188 -0.578610 -0.400382 0.396547 -0.578666 
-0.327573 0.427964 -0.579088 -0.257730 0.456485 -0.579717 
-0.190783 0.482156 -0.580395 -0.126659 0.505026 -0.580961 
-0.065276 0.525128 -0.581281 -0.006475 0.542425 -0.581366 
0.049930 0.556848 -0.581281 0.104126 0.568331 -0.581094 
0.156298 0.576807 -0.580870 0.206632 0.582210 -0.580677 
0.255252 0.584584 -0.580551 0.302176 0.584172 -0.580484 
0.347406 0.581234 -0.580458 0.390949 0.576031 -0.580459 
[...]
POINT_DATA 1600
SCALARS scalars float
LOOKUP_TABLE default
0.000000 0.000000 0.000000 0.000000 0.000000 0.000000 
0.000000 0.000000 0.000000 0.000000 0.000000 0.000000 
0.000000 0.000000 0.000000 0.000000 0.000000 0.000000 
0.000000 0.000000 0.000000 0.000000 0.000000 0.000000 
0.000000 0.000000 0.000000 0.000000 0.000000 0.000000 
0.000000 0.000000 0.000000 0.000000 0.000000 0.000000 
0.000000 0.000000 0.000000 0.000000 0.000000 0.077116 
-0.291738 -0.759285 -1.218849 -1.556140 -1.635923 -1.443449 
-1.113772 -0.747168 -0.432661 -0.244999 -0.227581 -0.343030 
-0.543481 -0.782234 -1.013899 -1.209468 -1.370552 -1.481149 
-1.559863 -1.619295 -1.666371 -1.654453 -1.651624 -1.678166 
-1.731540 -1.809137 -1.919519 -2.053260 -2.023005 -1.827780 
-1.506197 -1.130145 -0.655066 -0.305524 -0.148738 -0.133879 
-0.246480 0.000000 0.000000 0.006491 -0.279074 -0.635840 
-0.990140 -1.273908 -1.379467 -1.262128 -1.033168 -0.753970 
-0.484726 -0.283776 -0.283966 -0.417603 -0.634258 -0.898209 
-1.176161 -1.406265 -1.501958 -1.538913 -1.532898 -1.499014 
-1.451961 -1.511736 -1.646665 -1.804048 -1.969299 -2.126173 
-2.231080 -2.111549 -1.864520 -1.522276 -1.134488 -0.757037 
-0.499423 -0.438740 -0.513824 -0.696845 -0.962775 0.000000 
0.000000 -0.145312 -0.317387 -0.525142 -0.732739 -0.913145 
-1.006765 -0.970490 -0.867638 -0.723874 -0.569617 -0.440973 
-0.468457 -0.598084 -0.791985 -1.026924 -1.281291 -1.487705 
-1.535047 -1.531629 -1.489555 -1.421733 -1.342019 -1.452014 
-1.667226 -1.895352 -2.110782 -2.284486 -2.342217 -2.055238 
-1.698647 -1.311294 -0.931649 -0.593262 -0.504254 -0.649695 
-0.872283 -1.137838 -1.390513 0.000000 0.000000 -0.337807 
-0.377350 -0.415359 -0.458510 -0.514238 -0.571865 -0.606784 
-0.633218 -0.649761 -0.657609 -0.662537 -0.731486 -0.845207 
-0.990071 -1.159080 -1.344444 -1.492398 -1.505538 -1.485900 
-1.440484 -1.377205 -1.304890 -1.448312 -1.698533 -1.947638 
-2.163861 -2.312857 -2.312717 -1.940605 -1.555118 -1.185946 
-0.854504 -0.575204 -0.613979 -0.892995 -1.179226 -1.420861 
-1.548443 0.000000 0.000000 -0.528860 -0.437181 -0.304444 
-0.179787 -0.103240 -0.111070 -0.204453 -0.354929 -0.538357 
-0.727898 -0.894983 -1.020889 -1.118920 -1.203931 -1.288887 
-1.383625 -1.458869 -1.446701 -1.425217 -1.394619 -1.355735 
-1.309792 -1.471653 -1.723977 -1.958645 -2.144228 -2.249900 
-2.202457 -1.809816 -1.448213 -1.132379 -0.867747 -0.654238 
-0.781016 -1.124012 -1.399394 -1.548023 -1.521104 0.000000 
0.000000 -0.577491 -0.448274 -0.258231 -0.065869 0.074912 
0.101191 -0.010028 -0.211476 -0.467845 -0.741286 -0.991029 
-1.154486 -1.254034 -1.315355 -1.359714 -1.406100 -1.441440 
-1.419817 -1.403489 -1.388430 -1.370764 -1.346577 -1.516517 
-1.761512 -1.976725 -2.133060 -2.205425 -2.132061 -1.748546 
-1.419856 -1.148688 -0.930355 -0.756826 -0.913055 -1.247713 
-1.463848 -1.514659 -1.387563 0.000000 0.000000 -0.459097 
-0.392831 -0.285164 -0.169039 -0.081092 -0.067280 -0.151081 
-0.302739 -0.496738 -0.707848 -0.910913 -1.064679 -1.178213 
-1.265700 -1.339350 -1.411147 -1.463150 -1.451482 -1.442842 
-1.434814 -1.424661 -1.409341 -1.585226 -1.831113 -2.041516 
-2.186870 -2.243947 -2.157061 -1.780250 -1.464936 -1.208351 
-1.002059 -0.835636 -0.969434 -1.245203 -1.389548 -1.377459 
-1.222816 0.000000 0.000000 -0.326406 -0.319792 -0.298879 
-0.274947 -0.265446 -0.283079 -0.337587 -0.430095 -0.546603 
-0.674721 -0.803740 -0.938183 -1.064187 -1.182518 -1.296720 
-1.410743 -1.494956 -1.496115 -1.495516 -1.492637 -1.486229 
-1.474476 -1.651702 -1.895140 -2.099457 -2.235840 -2.283223 
-2.191111 -1.826858 -1.525354 -1.280795 -1.082714 -0.919294 
-1.011885 -1.207671 -1.278153 -1.220623 -1.064772 0.000000 
0.000000 -0.188322 -0.235199 -0.301858 -0.380159 -0.465589 
-0.526210 -0.549870 -0.576815 -0.607292 -0.642638 -0.685225 
-0.793757 -0.928403 -1.077128 -1.236239 -1.401707 -1.528514 
-1.546835 -1.556401 -1.558837 -1.554762 -1.543971 -1.718175 
-1.955014 -2.151140 -2.279649 -2.321906 -2.231870 -1.885462 
-1.597742 -1.362015 -1.167081 -1.000345 -1.040215 -1.149549 
-1.152945 -1.065938 -0.925457 0.000000 0.000000 -0.053938 
-0.147523 -0.299589 -0.482627 -0.667775 -0.774981 -0.768295 
-0.728048 -0.671170 -0.613567 -0.569785 -0.648370 -0.786537 
-0.961391 -1.163506 -1.381700 -1.555628 -1.596611 -1.620227 
-1.630242 -1.629397 -1.619440 -1.786513 -2.012026 -2.197238 
-2.318167 -2.358868 -2.277289 -1.953560 -1.679182 -1.448314 
-1.249979 -1.071243 -1.053433 -1.082752 -1.032812 -0.931095 
-0.816410 0.000000 0.000000 0.067448 -0.067257 -0.300101 
-0.581309 -0.856545 -1.005381 -0.972936 -0.870793 -0.733143 
-0.590814 -0.470844 -0.517277 -0.653110 -0.847111 -1.084896 
-1.349216 -1.568401 -1.638323 -1.681561 -1.703562 -1.709126 
-1.702129 -1.858173 -2.067255 -2.238441 -2.351446 -2.393268 
-2.325676 -2.028938 -1.766931 -1.535967 -1.326095 -1.124679 
-1.050374 -1.016637 -0.932478 -0.831025 -0.750389 0.000000 
0.000000 0.015317 -0.099799 -0.304728 -0.555211 -0.805837 
-0.947386 -0.925179 -0.842848 -0.728222 -0.606937 -0.502040 
-0.557040 -0.696349 -0.891639 -1.131750 -1.402418 -1.635328 
-1.722955 -1.779011 -1.807264 -1.812064 -1.797818 -1.922745 
-2.092872 -2.230140 -2.319528 -2.351562 -2.291501 -2.015311 
-1.755915 -1.515301 -1.289453 -1.071823 -0.980997 -0.947535 
-0.884652 -0.814487 -0.761186 0.000000 0.000000 -0.094517 
-0.175311 -0.324077 -0.508889 -0.699806 -0.816942 -0.815827 
-0.773947 -0.708872 -0.638099 -0.578637 -0.650504 -0.791250 
-0.979109 -1.207106 -1.465815 -1.698344 -1.804649 -1.876762 
-1.914874 -1.921305 -1.900064 -1.986852 -2.110006 -2.207086 
-2.268098 -2.286594 -2.230985 -1.971697 -1.709398 -1.454048 
-1.210581 -0.981291 -0.896586 -0.891634 -0.868782 -0.837809 
-0.809741 0.000000 0.000000 -0.228494 -0.269500 -0.353325 
-0.462340 -0.581985 -0.667744 -0.690923 -0.694888 -0.687503 
-0.678139 -0.677425 -0.767011 -0.906033 -1.081058 -1.288834 
-1.524550 -1.747089 -1.873311 -1.965117 -2.017871 -2.030447 
-2.005424 -2.052320 -2.126171 -2.181356 -2.211920 -2.213555 
-2.157679 -1.911775 -1.644500 -1.374506 -1.116780 -0.882883 
-0.816690 -0.849529 -0.869781 -0.876991 -0.870851 0.000000 
0.000000 -0.376752 -0.373784 -0.387534 -0.416222 -0.459884 
-0.510694 -0.558836 -0.611036 -0.666232 -0.725398 -0.791662 
-0.899402 -1.034419 -1.192836 -1.374752 -1.579301 -1.783173 
-1.927923 -2.040905 -2.112040 -2.135493 -2.111142 -2.119459 
-2.144344 -2.157365 -2.155481 -2.135563 -2.072042 -1.835786 
-1.564682 -1.285067 -1.020852 -0.791327 -0.748158 -0.817115 
-0.876478 -0.916499 -0.924938 0.000000 0.000000 -0.528851 
-0.480695 -0.423522 -0.372226 -0.340576 -0.355748 -0.427626 
-0.527986 -0.647349 -0.777880 -0.913934 -1.040185 -1.170017 
-1.309608 -1.462214 -1.630074 -1.807830 -1.967272 -2.100522 
-2.192377 -2.231589 -2.214026 -2.188635 -2.167454 -2.139136 
-2.102670 -2.055318 -1.974820 -1.745258 -1.475178 -1.195470 
-0.935357 -0.718807 -0.694617 -0.789026 -0.878396 -0.942282 
-0.953474 0.000000 0.000000 -0.644109 -0.574666 -0.473532 
-0.367570 -0.279959 -0.265720 -0.352409 -0.484981 -0.648778 
-0.829947 -1.016256 -1.149461 -1.266040 -1.380582 -1.498579 
-1.624168 -1.768780 -1.937860 -2.091475 -2.211051 -2.280045 
-2.288531 -2.250218 -2.199065 -2.139278 -2.071341 -1.993294 
-1.888599 -1.668749 -1.413797 -1.152588 -0.911784 -0.713407 
-0.685796 -0.769349 -0.855193 -0.915478 -0.911950 0.000000 
0.000000 -0.667481 -0.635819 -0.556312 -0.455566 -0.356697 
-0.328726 -0.411217 -0.536567 -0.693218 -0.869889 -1.056065 
-1.166158 -1.250484 -1.327340 -1.402308 -1.480091 -1.587099 
-1.762052 -1.939346 -2.100419 -2.225135 -2.296121 -2.287195 
-2.240860 -2.172697 -2.085094 -1.980002 -1.852318 -1.653964 
-1.435825 -1.216708 -1.011720 -0.832375 -0.764262 -0.772134 
-0.785485 -0.786669 -0.751076 0.000000 0.000000 -0.670356 
-0.683413 -0.633589 -0.546340 -0.445409 -0.409059 -0.484254 
-0.597122 -0.739209 -0.902271 -1.078302 -1.165120 -1.219385 
-1.261366 -1.296991 -1.331917 -1.405143 -1.582435 -1.778028 
-1.975115 -2.152417 -2.286957 -2.316658 -2.283238 -2.210741 
-2.104676 -1.972848 -1.822742 -1.645938 -1.465562 -1.289934 
-1.123368 -0.967611 -0.857086 -0.777876 -0.704459 -0.634072 
-0.561976 0.000000 0.000000 -0.653387 -0.715511 -0.702029 
-0.636179 -0.542185 -0.502375 -0.567200 -0.662992 -0.784344 
-0.926037 -1.082662 -1.145978 -1.173009 -1.184430 -1.186766 
-1.187162 -1.234179 -1.411853 -1.621054 -1.847054 -2.068747 
-2.259464 -2.330357 -2.315774 -2.244293 -2.125048 -1.972568 
-1.806108 -1.649144 -1.502792 -1.366816 -1.236620 -1.104855 
-0.954923 -0.787851 -0.624415 -0.481195 -0.376468 0.000000 
0.000000 -0.619068 -0.731793 -0.758992 -0.721259 -0.642677 
-0.603929 -0.655438 -0.730265 -0.825951 -0.939885 -1.068671 
-1.108251 -1.111658 -1.098530 -1.076069 -1.053230 -1.084154 
-1.260839 -1.479478 -1.726521 -1.980776 -2.212778 -2.320061 
-2.327430 -2.263730 -2.141036 -1.979566 -1.807230 -1.666836 
-1.547614 -1.443429 -1.342367 -1.228054 -1.043850 -0.800227 
-0.557430 -0.352758 -0.226166 0.000000 0.000000 -0.571128 
-0.733481 -0.802653 -0.797641 -0.741911 -0.708475 -0.744132 
-0.794939 -0.861233 -0.942323 -1.035746 -1.051512 -1.035756 
-1.005803 -0.969375 -0.937208 -0.963988 -1.138275 -1.362366 
-1.622063 -1.894244 -2.146090 -2.277653 -2.307004 -2.259217 
-2.147304 -1.993971 -1.830445 -1.702174 -1.600845 -1.516885 
-1.431635 -1.319116 -1.106666 -0.811503 -0.515611 -0.273637 
-0.142114 0.000000 0.000000 -0.509636 -0.647102 -0.716326 
-0.732394 -0.711142 -0.703376 -0.741870 -0.789002 -0.846391 
-0.914156 -0.990724 -1.012046 -1.016297 -1.015784 -1.015118 
-1.021279 -1.076488 -1.247839 -1.455980 -1.685985 -1.914755 
-2.112607 -2.210636 -2.232763 -2.197214 -2.112066 -1.991912 
-1.855975 -1.722601 -1.603683 -1.495000 -1.383073 -1.248326 
-1.055194 -0.818011 -0.584903 -0.394389 -0.288461 0.000000 
0.000000 -0.433346 -0.517318 -0.570858 -0.604142 -0.623539 
-0.651935 -0.702372 -0.755180 -0.812360 -0.874551 -0.941393 
-0.980918 -1.021219 -1.068999 -1.125583 -1.193296 -1.295562 
-1.464222 -1.645262 -1.822818 -1.975779 -2.082474 -2.122492 
-2.128618 -2.107902 -2.060841 -1.990343 -1.896626 -1.746825 
-1.585408 -1.420202 -1.252829 -1.082097 -0.943273 -0.826820 
-0.712069 -0.612707 -0.552520 0.000000 0.000000 -0.344002 
-0.378637 -0.419889 -0.471687 -0.532078 -0.597665 -0.661064 
-0.720467 -0.778027 -0.835214 -0.893467 -0.952850 -1.029273 
-1.124434 -1.237895 -1.369263 -1.523461 -1.690995 -1.843206 
-1.963589 -2.035116 -2.046994 -2.030349 -2.022710 -2.018128 
-2.010830 -1.994204 -1.949458 -1.779269 -1.564476 -1.330196 
-1.099663 -0.894319 -0.824844 -0.840846 -0.850853 -0.849421 
-0.845034 0.000000 0.000000 -0.246404 -0.237626 -0.270806 
-0.341489 -0.440198 -0.540996 -0.617810 -0.684749 -0.744096 
-0.798634 -0.852387 -0.933077 -1.043989 -1.182572 -1.347529 
-1.537008 -1.740197 -1.908188 -2.032966 -2.098747 -2.094775 
-2.022373 -1.956126 -1.934683 -1.941394 -1.966758 -1.997627 
-1.998444 -1.807040 -1.536333 -1.232565 -0.943828 -0.713541 
-0.715038 -0.854987 -0.984606 -1.081575 -1.133944 0.000000 
0.000000 -0.149990 -0.102697 -0.130557 -0.218900 -0.350834 
-0.482208 -0.572122 -0.647352 -0.710542 -0.766234 -0.821580 
-0.924149 -1.066669 -1.242969 -1.450484 -1.685394 -1.925135 
-2.093518 -2.195943 -2.219232 -2.159206 -2.026798 -1.920831 
-1.882007 -1.889706 -1.933015 -1.994084 -2.024016 -1.814505 
-1.497880 -1.139898 -0.809111 -0.564615 -0.620043 -0.859249 
-1.096387 -1.286988 -1.385680 0.000000 0.000000 -0.080543 
-0.008210 -0.034290 -0.135319 -0.288523 -0.438074 -0.535443 
-0.615819 -0.682337 -0.740886 -0.800808 -0.917778 -1.079131 
-1.276216 -1.504318 -1.756555 -2.005808 -2.174145 -2.271222 
-2.286950 -2.218836 -2.077860 -1.953809 -1.894778 -1.887603 
-1.922675 -1.979541 -2.003836 -1.786303 -1.455195 -1.082498 
-0.739790 -0.487531 -0.547861 -0.827108 -1.132977 -1.393053 
-1.519046 0.000000 0.000000 -0.111848 -0.081508 -0.124342 
-0.222812 -0.360958 -0.489479 -0.566980 -0.631896 -0.686299 
-0.733556 -0.778913 -0.867782 -0.989689 -1.139275 -1.314850 
-1.513644 -1.723707 -1.902897 -2.050372 -2.152641 -2.194889 
-2.167152 -2.098768 -2.041624 -2.001738 -1.978452 -1.962501 
-1.922137 -1.718608 -1.439473 -1.131782 -0.836437 -0.586185 
-0.553107 -0.706114 -0.910991 -1.115093 -1.248602 0.000000 
0.000000 -0.167832 -0.172167 -0.224941 -0.315022 -0.431983 
-0.535106 -0.593294 -0.643795 -0.688156 -0.727801 -0.764456 
-0.825170 -0.905157 -1.003082 -1.119657 -1.255145 -1.416326 
-1.607725 -1.806885 -1.999380 -2.162657 -2.269972 -2.272064 
-2.217990 -2.135930 -2.035684 -1.923705 -1.800758 -1.625205 
-1.416541 -1.192365 -0.964319 -0.741072 -0.614426 -0.607402 
-0.662058 -0.757939 -0.866923 0.000000 0.000000 -0.238339 
-0.273938 -0.332887 -0.410417 -0.501419 -0.576210 -0.615720 
-0.652521 -0.687854 -0.721857 -0.753739 -0.788650 -0.827530 
-0.873545 -0.930392 -1.002209 -1.115897 -1.320081 -1.565107 
-1.837582 -2.113243 -2.356582 -2.439243 -2.394112 -2.268788 
-2.086248 -1.874261 -1.671016 -1.529516 -1.391605 -1.251608 
-1.099742 -0.925747 -0.725078 -0.550166 -0.428702 -0.382616 
-0.438293 0.000000 0.000000 -0.315276 -0.381163 -0.444620 
-0.506913 -0.568832 -0.613942 -0.635336 -0.658597 -0.684614 
-0.712726 -0.740667 -0.753762 -0.756414 -0.755943 -0.759574 
-0.776358 -0.851008 -1.065060 -1.344984 -1.678523 -2.042970 
-2.400883 -2.563078 -2.535778 -2.378181 -2.126436 -1.830527 
-1.562595 -1.450094 -1.369184 -1.300738 -1.221731 -1.107318 
-0.861465 -0.539518 -0.249737 -0.055852 -0.033706 0.000000 
0.000000 -0.393108 -0.488778 -0.556028 -0.601777 -0.633608 
-0.649418 -0.652968 -0.662071 -0.676989 -0.696366 -0.717019 
-0.712871 -0.688677 -0.654515 -0.620587 -0.600406 -0.648832 
-0.863999 -1.163394 -1.533562 -1.951522 -2.379384 -2.603681 
-2.604885 -2.441879 -2.156866 -1.812993 -1.503553 -1.402477 
-1.354337 -1.334574 -1.311627 -1.247594 -0.985598 -0.566847 
-0.155582 0.157480 0.271099 0.000000 0.000000 -0.404506 
-0.509526 -0.575929 -0.613123 -0.632333 -0.640238 -0.645726 
-0.660476 -0.685022 -0.719038 -0.761339 -0.792001 -0.810129 
-0.819561 -0.823309 -0.826577 -0.868236 -1.034087 -1.264775 
-1.550953 -1.876225 -2.215613 -2.404988 -2.421594 -2.306023 
-2.083089 -1.796156 -1.521454 -1.430408 -1.389948 -1.381315 
-1.376720 -1.340819 -1.134756 -0.776370 -0.407064 -0.091040 
0.111322 0.000000 0.000000 -0.357079 -0.450965 -0.509681 
-0.544045 -0.566024 -0.584561 -0.608528 -0.645910 -0.697713 
-0.764948 -0.848942 -0.947714 -1.051041 -1.152771 -1.245157 
-1.319404 -1.379889 -1.470377 -1.576827 -1.698493 -1.832626 
-1.976648 -2.066771 -2.084918 -2.039954 -1.931447 -1.769921 
-1.591453 -1.511936 -1.461398 -1.431582 -1.407416 -1.370243 
-1.269181 -1.080047 -0.852679 -0.615024 -0.386413 0.000000 
0.000000 -0.296801 -0.376171 -0.425614 -0.458163 -0.486170 
-0.517964 -0.560519 -0.620823 -0.700211 -0.800373 -0.923726 
-1.086160 -1.268301 -1.456785 -1.637264 -1.791173 -1.888663 
-1.917835 -1.909208 -1.871822 -1.818821 -1.769839 -1.763795 
-1.777902 -1.789498 -1.783051 -1.746758 -1.677286 -1.600145 
-1.523465 -1.451935 -1.388803 -1.338042 -1.360958 -1.368790 
-1.297035 -1.148987 -0.928311 0.000000 0.000000 -0.223413 
-0.290208 -0.332748 -0.366304 -0.403204 -0.448957 -0.507832 
-0.589056 -0.694911 -0.827981 -0.991281 -1.211718 -1.462516 
-1.724749 -1.979951 -2.203776 -2.343089 -2.338787 -2.246924 
-2.085298 -1.881222 -1.672691 -1.574223 -1.561908 -1.596305 
-1.657766 -1.722264 -1.751917 -1.669608 -1.555611 -1.431414 
-1.324305 -1.264343 -1.418171 -1.633970 -1.733684 -1.687056 
-1.479988 0.000000 0.000000 -0.136796 -0.197977 -0.239229 
-0.277974 -0.326435 -0.385752 -0.457083 -0.555160 -0.684238 
-0.848719 -1.052543 -1.322024 -1.626612 -1.941009 -2.242103 
-2.502736 -2.669441 -2.676370 -2.569194 -2.364735 -2.090394 
-1.789033 -1.592893 -1.507367 -1.510086 -1.586140 -1.701489 
-1.786816 -1.689729 -1.537391 -1.366928 -1.225260 -1.162398 
-1.416341 -1.826420 -2.125439 -2.215848 -2.029629 0.000000 
0.000000 0.000000 0.000000 0.000000 0.000000 0.000000 
0.000000 0.000000 0.000000 0.000000 0.000000 0.000000 
0.000000 0.000000 0.000000 0.000000 0.000000 0.000000 
0.000000 0.000000 0.000000 0.000000 0.000000 0.000000 
0.000000 0.000000 0.000000 0.000000 0.000000 0.000000 
0.000000 0.000000 0.000000 0.000000 0.000000 0.000000 
0.000000 0.000000 0.000000 0.000000 
