# vtk DataFile Version 1.0
vtk output
ASCII
DATASET POLYDATA
POINTS 1600 float
-1.045800 0.009312 -1.041420 -0.942922 0.051767 -1.045589 
-0.844566 0.093283 -1.048201 -0.750407 0.133235 -1.049612 
-0.660117 0.170998 -1.050178 -0.573370 0.205947 -1.050254 
-0.489844 0.237469 -1.050192 -0.409364 0.265355 -1.050166 
-0.331930 0.289885 -1.050140 -0.257557 0.311367 -1.050063 
-0.186256 0.330109 -1.049885 -0.118039 0.346420 -1.049556 
-0.052896 0.360569 -1.049044 0.009321 0.372584 -1.048431 
0.068813 0.382403 -1.047842 0.125781 0.389960 -1.047400 
0.180426 0.395194 -1.047232 0.232950 0.398040 -1.047461 
0.283508 0.398492 -1.048108 0.332186 0.396646 -1.049017 
0.379057 0.392604 -1.050013 0.424197 0.386473 -1.050921 
0.467680 0.378355 -1.051567 0.509582 0.368353 -1.051793 
0.549953 0.356538 -1.051617 0.588838 0.342961 -1.051158 
0.626277 0.327676 -1.050534 0.662313 0.310736 -1.049864 
0.696989 0.292194 -1.049267 0.730404 0.272118 -1.048824 
0.762811 0.250618 -1.048519 0.794489 0.227810 -1.048321 
0.825714 0.203810 -1.048199 0.856764 0.178734 -1.048120 
0.887912 0.152687 -1.048061 0.919364 0.125586 -1.048123 
0.951268 0.097193 -1.048515 0.983771 0.067264 -1.049448 
1.017020 0.035555 -1.051133 1.051160 0.001824 -1.053780 
-1.050175 0.022260 -0.988763 -0.947236 0.065902 -0.990629 
-0.848203 0.108417 -0.992153 -0.753009 0.149315 -0.993335 
-0.661587 0.188107 -0.994174 -0.573869 0.224302 -0.994669 
-0.489788 0.257418 -0.994821 -0.409246 0.287233 -0.994676 
-0.332104 0.313836 -0.994336 -0.258224 0.337336 -0.993906 
-0.187466 0.357839 -0.993490 -0.119692 0.375456 -0.993195 
-0.054762 0.390293 -0.993105 0.007454 0.402466 -0.993190 
0.067085 0.412090 -0.993374 0.124259 0.419279 -0.993582 
0.179107 0.424151 -0.993739 0.231756 0.426820 -0.993768 
0.282325 0.427380 -0.993644 0.330916 0.425893 -0.993421 
0.377628 0.422412 -0.993166 0.422561 0.416993 -0.992944 
0.465813 0.409693 -0.992819 0.507485 0.400559 -0.992848 
0.547666 0.389570 -0.993011 0.586444 0.376661 -0.993240 
0.623903 0.361771 -0.993468 0.660131 0.344836 -0.993630 
0.695212 0.325794 -0.993658 0.729259 0.304660 -0.993523 
0.762443 0.281661 -0.993300 0.794950 0.257058 -0.993079 
0.826962 0.231109 -0.992949 0.858664 0.204076 -0.993000 
0.890236 0.176197 -0.993312 0.921819 0.147330 -0.993793 
0.953517 0.117022 -0.994211 0.985434 0.084813 -0.994325 
1.017675 0.050237 -0.993900 1.050342 0.012834 -0.992695 
-1.051542 0.035135 -0.935412 -0.948951 0.080491 -0.935871 
-0.849858 0.124197 -0.936660 -0.754339 0.165967 -0.937585 
-0.662467 0.205516 -0.938453 -0.574318 0.242557 -0.939072 
-0.489963 0.276808 -0.939253 -0.409354 0.308090 -0.938973 
-0.332297 0.336352 -0.938410 -0.258593 0.361548 -0.937753 
-0.188041 0.383634 -0.937191 -0.120440 0.402565 -0.936912 
-0.055599 0.418323 -0.937066 0.006605 0.431062 -0.937559 
0.066274 0.440997 -0.938203 0.123508 0.448346 -0.938809 
0.178405 0.453325 -0.939190 0.231068 0.456151 -0.939160 
0.281597 0.456975 -0.938660 0.330102 0.455831 -0.937860 
0.376691 0.452744 -0.936952 0.421471 0.447736 -0.936126 
0.464552 0.440832 -0.935576 0.506041 0.432046 -0.935472 
0.546056 0.421316 -0.935777 0.584715 0.408535 -0.936334 
0.622139 0.393596 -0.936987 0.658446 0.376391 -0.937579 
0.693757 0.356812 -0.937952 0.728191 0.334856 -0.938022 
0.761869 0.310783 -0.937890 0.794909 0.284900 -0.937689 
0.827432 0.257511 -0.937553 0.859558 0.228923 -0.937612 
0.891405 0.199416 -0.937986 0.923076 0.168840 -0.938522 
0.954658 0.136690 -0.938849 0.986238 0.102452 -0.938589 
1.017903 0.065608 -0.937363 1.049740 0.025644 -0.934792 
-1.050875 0.047765 -0.881470 -0.948882 0.095153 -0.881215 
-0.850154 0.140186 -0.881555 -0.754819 0.182809 -0.882229 
-0.663003 0.222966 -0.882972 -0.574831 0.260604 -0.883520 
-0.490425 0.295665 -0.883617 -0.409767 0.328052 -0.883213 
-0.332668 0.357618 -0.882514 -0.258930 0.384210 -0.881737 
-0.188354 0.407678 -0.881102 -0.120743 0.427870 -0.880827 
-0.055907 0.444679 -0.881083 0.006279 0.458260 -0.881752 
0.065918 0.468869 -0.882600 0.123111 0.476762 -0.883398 
0.177960 0.482197 -0.883913 0.230567 0.485427 -0.883916 
0.281036 0.486624 -0.883334 0.329473 0.485809 -0.882373 
0.375981 0.482986 -0.881264 0.420668 0.478162 -0.880241 
0.463639 0.471342 -0.879535 0.505001 0.462525 -0.879355 
0.544885 0.451647 -0.879664 0.583435 0.438607 -0.880288 
0.620796 0.423303 -0.881049 0.657110 0.405634 -0.881770 
0.692522 0.385499 -0.882275 0.727160 0.362892 -0.882462 
0.761111 0.338056 -0.882419 0.794458 0.311272 -0.882268 
0.827281 0.282823 -0.882129 0.859661 0.252992 -0.882124 
0.891681 0.222038 -0.882360 0.923422 0.189836 -0.882719 
0.954971 0.155940 -0.882895 0.986413 0.119893 -0.882579 
1.017834 0.081241 -0.881458 1.049318 0.039529 -0.879221 
-1.049147 0.059981 -0.827044 -0.947845 0.109511 -0.826560 
-0.849716 0.155949 -0.826675 -0.754875 0.199458 -0.827134 
-0.663437 0.240199 -0.827683 -0.575518 0.278334 -0.828068 
-0.491229 0.314018 -0.828039 -0.410564 0.347246 -0.827549 
-0.333374 0.377820 -0.826796 -0.259498 0.405526 -0.825990 
-0.188780 0.430155 -0.825341 -0.121060 0.451494 -0.825061 
-0.056184 0.469380 -0.825313 0.005979 0.483949 -0.825982 
0.065552 0.495450 -0.826841 0.122654 0.504133 -0.827667 
0.177410 0.510247 -0.828233 0.229939 0.514040 -0.828316 
0.280356 0.515676 -0.827842 0.328756 0.515171 -0.826998 
0.375236 0.512523 -0.825999 0.419891 0.507731 -0.825058 
0.462817 0.500795 -0.824390 0.504113 0.491711 -0.824187 
0.543916 0.480435 -0.824422 0.582387 0.466902 -0.824947 
0.619686 0.451046 -0.825612 0.655972 0.432801 -0.826264 
0.691405 0.412103 -0.826753 0.726122 0.388955 -0.826986 
0.760196 0.363551 -0.827018 0.793690 0.336109 -0.826928 
0.826667 0.306852 -0.826795 0.859190 0.276000 -0.826699 
0.891323 0.243757 -0.826713 0.923142 0.210037 -0.826796 
0.954736 0.174512 -0.826816 0.986192 0.136848 -0.826636 
1.017598 0.096710 -0.826120 1.049041 0.053764 -0.825133 
-1.047330 0.071614 -0.772237 -0.946659 0.123184 -0.771806 
-0.849168 0.171051 -0.771852 -0.754930 0.215534 -0.772168 
-0.664014 0.256956 -0.772544 -0.576491 0.295638 -0.772771 
-0.492432 0.331893 -0.772647 -0.411825 0.365799 -0.772135 
-0.334572 0.397145 -0.771407 -0.260563 0.425704 -0.770643 
-0.189692 0.451251 -0.770025 -0.121851 0.473559 -0.769733 
-0.056930 0.492447 -0.769912 0.005209 0.508019 -0.770463 
0.064711 0.520486 -0.771200 0.121724 0.530061 -0.771933 
0.176394 0.536956 -0.772476 0.228867 0.541382 -0.772641 
0.279267 0.543480 -0.772359 0.327681 0.543265 -0.771775 
0.374192 0.540738 -0.771051 0.418880 0.535903 -0.770350 
0.461830 0.528762 -0.769836 0.503127 0.519315 -0.769657 
0.542912 0.507550 -0.769799 0.581353 0.493445 -0.770159 
0.618620 0.476978 -0.770635 0.654882 0.458127 -0.771120 
0.690307 0.436871 -0.771511 0.725038 0.413231 -0.771738 
0.759148 0.387339 -0.771819 0.792697 0.359347 -0.771785 
0.825747 0.329405 -0.771670 0.858358 0.297665 -0.771505 
0.890592 0.264266 -0.771323 0.922523 0.229162 -0.771164 
0.954234 0.192151 -0.771074 0.985807 0.153029 -0.771100 
1.017326 0.111588 -0.771286 1.048874 0.067624 -0.771680 
-1.046381 0.082496 -0.717156 -0.946124 0.135801 -0.716856 
-0.849124 0.185061 -0.716927 -0.755400 0.230660 -0.717201 
-0.664972 0.272981 -0.717510 -0.577862 0.312407 -0.717686 
-0.494087 0.349316 -0.717566 -0.413627 0.383831 -0.717122 
-0.336415 0.415773 -0.716493 -0.262382 0.444945 -0.715825 
-0.191455 0.471149 -0.715266 -0.123566 0.494187 -0.714962 
-0.058635 0.513900 -0.715032 0.003480 0.530360 -0.715406 
0.062942 0.543725 -0.715946 0.119914 0.554156 -0.716512 
0.174559 0.561814 -0.716965 0.227040 0.566857 -0.717166 
0.277490 0.569394 -0.717062 0.325983 0.569447 -0.716743 
0.372590 0.567027 -0.716317 0.417380 0.562148 -0.715892 
0.460424 0.554820 -0.715574 0.501799 0.545057 -0.715460 
0.541640 0.532868 -0.715546 0.580121 0.518263 -0.715772 
0.617414 0.501251 -0.716076 0.653692 0.481844 -0.716397 
0.689127 0.460050 -0.716672 0.723866 0.435902 -0.716858 
0.757991 0.409493 -0.716950 0.791571 0.380923 -0.716952 
0.824677 0.350295 -0.716869 0.857380 0.317710 -0.716703 
0.889748 0.283264 -0.716464 0.921848 0.246934 -0.716227 
0.953740 0.208603 -0.716128 0.985485 0.168151 -0.716304 
1.017146 0.125455 -0.716891 1.048782 0.080395 -0.718025 
-1.046644 0.092557 -0.661961 -0.946558 0.147203 -0.661758 
-0.849836 0.197778 -0.661897 -0.756459 0.244623 -0.662226 
-0.666404 0.288080 -0.662596 -0.579653 0.328490 -0.662854 
-0.496184 0.366187 -0.662853 -0.415959 0.401303 -0.662562 
-0.338921 0.433720 -0.662090 -0.265011 0.463306 -0.661554 
-0.194169 0.489930 -0.661071 -0.126337 0.513460 -0.660759 
-0.061445 0.533789 -0.660713 0.000648 0.550963 -0.660893 
0.060109 0.565086 -0.661209 0.117106 0.576262 -0.661571 
0.171806 0.584595 -0.661887 0.224375 0.590190 -0.662068 
0.274945 0.593123 -0.662074 0.323583 0.593425 -0.661957 
0.370349 0.591121 -0.661775 0.415304 0.586237 -0.661590 
0.458508 0.578799 -0.661461 0.500030 0.568832 -0.661441 
0.540003 0.556358 -0.661530 0.578597 0.541396 -0.661693 
0.615986 0.523968 -0.661895 0.652339 0.504094 -0.662103 
0.687830 0.481792 -0.662281 0.722608 0.457101 -0.662405 
0.756768 0.430097 -0.662472 0.790397 0.400866 -0.662486 
0.823580 0.369493 -0.662449 0.856403 0.336063 -0.662362 
0.888952 0.300656 -0.662232 0.921274 0.263254 -0.662116 
0.953393 0.223762 -0.662114 0.985330 0.182081 -0.662327 
1.017105 0.138111 -0.662859 1.048741 0.091754 -0.663810 
-1.047729 0.101846 -0.606880 -0.947690 0.157487 -0.606729 
-0.851124 0.209266 -0.606947 -0.757984 0.257408 -0.607383 
-0.668222 0.302139 -0.607885 -0.581789 0.343682 -0.608301 
-0.498636 0.382261 -0.608484 -0.418709 0.417978 -0.608390 
-0.341939 0.450797 -0.608104 -0.268261 0.480673 -0.607717 
-0.197608 0.507560 -0.607321 -0.129912 0.531413 -0.607009 
-0.065098 0.552197 -0.606857 -0.003027 0.569939 -0.606853 
0.056462 0.584689 -0.606952 0.113532 0.596499 -0.607106 
0.168343 0.605419 -0.607269 0.221058 0.611500 -0.607396 
0.271799 0.614790 -0.607463 0.320629 0.615327 -0.607489 
0.367600 0.613153 -0.607496 0.412766 0.608307 -0.607507 
[...]
POINT_DATA 1600
SCALARS scalars float
LOOKUP_TABLE default
0.000000 0.000000 0.000000 0.000000 0.000000 0.000000 
0.000000 0.000000 0.000000 0.000000 0.000000 0.000000 
0.000000 0.000000 0.000000 0.000000 0.000000 0.000000 
0.000000 0.000000 0.000000 0.000000 0.000000 0.000000 
0.000000 0.000000 0.000000 0.000000 0.000000 0.000000 
0.000000 0.000000 0.000000 0.000000 0.000000 0.000000 
0.000000 0.000000 0.000000 0.000000 0.000000 -0.020078 
-0.007155 -0.008830 -0.015123 -0.021028 -0.028307 -0.029010 
-0.012153 0.021439 0.065479 0.110780 0.147251 0.158903 
0.146986 0.112777 0.059096 -0.007728 -0.076426 -0.134244 
-0.170535 -0.177597 -0.150792 -0.088690 0.036508 0.219504 
0.428334 0.608524 0.675194 0.527950 0.341870 0.173841 
0.046748 -0.040476 -0.045473 -0.056565 -0.201843 -0.556291 
-1.095703 0.000000 0.000000 -0.044462 -0.016384 -0.007873 
-0.006682 -0.007267 -0.011011 -0.010059 0.003621 0.031445 
0.070798 0.115489 0.144608 0.154898 0.149613 0.130538 
0.099966 0.061207 0.019647 -0.017125 -0.040918 -0.043480 
-0.017178 0.048520 0.166608 0.324236 0.491721 0.627111 
0.669391 0.532677 0.377681 0.234468 0.111438 0.002517 
-0.033292 -0.023575 -0.054567 -0.164873 -0.367078 0.000000 
0.000000 -0.061351 -0.022290 -0.006833 -0.002357 -0.002248 
-0.005256 -0.003568 0.007819 0.030870 0.065083 0.106936 
0.132243 0.145094 0.149282 0.146303 0.137726 0.125478 
0.112067 0.100013 0.093220 0.096224 0.113554 0.167073 
0.258352 0.372302 0.488041 0.578122 0.603104 0.498323 
0.382081 0.270549 0.165513 0.059390 0.003247 0.003082 
0.006168 -0.012317 -0.073084 0.000000 0.000000 -0.061757 
-0.021589 -0.004601 -0.000303 -0.001794 -0.005214 -0.003963 
0.004706 0.023027 0.051914 0.090113 0.116245 0.136668 
0.154671 0.171063 0.186536 0.202520 0.220830 0.239225 
0.257082 0.273403 0.286465 0.320168 0.368548 0.421135 
0.470955 0.507794 0.513413 0.445961 0.370476 0.292639 
0.210663 0.118446 0.051392 0.028750 0.026412 0.031518 
0.028245 0.000000 0.000000 -0.044999 -0.014162 -0.002287 
-0.001594 -0.005551 -0.008872 -0.008479 -0.002943 0.010616 
0.034518 0.069642 0.101278 0.134590 0.171689 0.212524 
0.256747 0.305380 0.360522 0.415885 0.466567 0.505647 
0.524247 0.535012 0.528261 0.504785 0.474928 0.447869 
0.425784 0.387720 0.348896 0.303054 0.244772 0.170218 
0.100342 0.054282 0.031115 0.032194 0.053867 0.000000 
0.000000 -0.019125 -0.006753 -0.005387 -0.009170 -0.012857 
-0.011561 -0.007317 -0.000431 0.012469 0.034456 0.067471 
0.102568 0.144305 0.194145 0.251653 0.315785 0.386479 
0.464880 0.543795 0.616433 0.673261 0.702407 0.701102 
0.660217 0.589221 0.507168 0.433248 0.380759 0.345397 
0.318392 0.287353 0.245453 0.190430 0.133577 0.081946 
0.043336 0.027234 0.037692 0.000000 0.000000 -0.002602 
-0.005404 -0.011488 -0.015758 -0.014551 -0.004700 0.007578 
0.019867 0.035358 0.056841 0.085979 0.117695 0.156866 
0.204980 0.261933 0.326746 0.397818 0.473390 0.549325 
0.620031 0.677761 0.713057 0.718128 0.684789 0.620469 
0.539375 0.456956 0.385573 0.330013 0.286309 0.246994 
0.207853 0.167161 0.133045 0.099067 0.065814 0.038803 
0.019775 0.000000 0.000000 0.004723 -0.004885 -0.013659 
-0.015931 -0.008399 0.009520 0.027396 0.042725 0.058364 
0.076873 0.099942 0.128158 0.164910 0.211300 0.267453 
0.332385 0.402558 0.472628 0.542209 0.606895 0.660810 
0.697040 0.709301 0.688622 0.637907 0.565796 0.483076 
0.399109 0.321155 0.257493 0.206130 0.165025 0.132161 
0.116204 0.102519 0.082670 0.056410 0.022033 0.000000 
0.000000 0.006006 -0.004352 -0.011136 -0.008395 0.007085 
0.032306 0.053107 0.069224 0.082871 0.096301 0.111488 
0.135929 0.170129 0.214486 0.269207 0.333140 0.400729 
0.463386 0.524325 0.580453 0.627977 0.662767 0.682987 
0.677850 0.644459 0.585549 0.507056 0.414944 0.315975 
0.232737 0.168505 0.123197 0.094506 0.091441 0.096270 
0.092806 0.075143 0.038657 0.000000 0.000000 0.003712 
-0.003196 -0.004124 0.006344 0.031083 0.062586 0.083737 
0.098552 0.108469 0.115474 0.122096 0.142686 0.174068 
0.215833 0.268144 0.329468 0.392444 0.446461 0.497433 
0.543813 0.584148 0.617303 0.645810 0.656878 0.641722 
0.597168 0.524501 0.426844 0.310586 0.210548 0.134760 
0.084841 0.058149 0.061632 0.080258 0.093325 0.089539 
0.060938 0.000000 0.000000 -0.000110 -0.000731 0.006627 
0.026338 0.060539 0.096745 0.116021 0.127701 0.132766 
0.133268 0.132598 0.149809 0.178100 0.216511 0.265114 
0.321801 0.377880 0.422608 0.463059 0.499531 0.533151 
0.565861 0.602265 0.628235 0.630024 0.598785 0.531434 
0.429146 0.300437 0.187508 0.102772 0.049021 0.022499 
0.025154 0.051608 0.080541 0.094497 0.079750 0.000000 
0.000000 -0.003122 0.002830 0.014961 0.036016 0.067389 
0.097267 0.111858 0.122238 0.129142 0.134026 0.139239 
0.161852 0.193247 0.232340 0.279390 0.332899 0.386318 
0.432999 0.478536 0.522646 0.565043 0.605307 0.641709 
0.661134 0.654316 0.616345 0.547468 0.451359 0.337443 
0.236716 0.157327 0.099302 0.057176 0.035275 0.040750 
0.059362 0.076563 0.077419 0.000000 0.000000 -0.003687 
0.006259 0.019551 0.038236 0.063446 0.086263 0.098526 
0.110180 0.121991 0.134905 0.150026 0.178791 0.212932 
0.251571 0.295103 0.342947 0.392420 0.443158 0.497197 
0.553124 0.608318 0.658802 0.692718 0.700275 0.679497 
0.630944 0.559020 0.470774 0.379822 0.299141 0.231573 
0.173864 0.118991 0.069512 0.046196 0.046120 0.057092 
0.062787 0.000000 0.000000 -0.002055 0.009680 0.021999 
0.036827 0.055422 0.072529 0.084721 0.099450 0.117508 
0.139406 0.165124 0.198890 0.234285 0.270717 0.308632 
0.348535 0.392427 0.446786 0.509256 0.577215 0.645617 
0.706867 0.737835 0.733236 0.698856 0.640472 0.566284 
0.486961 0.422769 0.365720 0.313550 0.260164 0.197865 
0.121730 0.066484 0.043432 0.041994 0.045157 0.000000 
0.000000 0.001011 0.012714 0.022851 0.033361 0.045879 
0.058899 0.072565 0.091521 0.116418 0.147226 0.182766 
0.220086 0.255315 0.288147 0.319170 0.350258 0.388133 
0.444974 0.514642 0.593384 0.673894 0.745156 0.773774 
0.758806 0.713115 0.647210 0.572730 0.503945 0.468382 
0.436762 0.401820 0.355153 0.289344 0.188005 0.099358 
0.050584 0.032709 0.029227 0.000000 0.000000 0.004419 
0.014635 0.022127 0.028696 0.036439 0.047048 0.062945 
0.086543 0.118157 0.156970 0.200264 0.239568 0.273305 
0.301550 0.325468 0.348684 0.381651 0.439208 0.513618 
0.600348 0.690288 0.769471 0.797402 0.775878 0.723013 
0.653349 0.581513 0.524830 0.516686 0.509529 0.491311 
0.451749 0.384208 0.259901 0.139087 0.064583 0.029246 
0.017595 0.000000 0.000000 0.006848 0.014919 0.020707 
0.025569 0.031655 0.042111 0.059720 0.085756 0.120244 
0.161656 0.205898 0.244146 0.276402 0.303446 0.327293 
0.352271 0.387974 0.445067 0.517565 0.601578 0.688623 
0.765114 0.792103 0.771166 0.720256 0.654344 0.588343 
0.540196 0.545030 0.547615 0.534881 0.497331 0.430205 
0.298827 0.164893 0.077407 0.031143 0.012171 0.000000 
0.000000 0.008598 0.015804 0.022494 0.029431 0.037981 
0.050051 0.066626 0.088771 0.116664 0.149198 0.183157 
0.217477 0.252700 0.290172 0.331739 0.379017 0.432619 
0.490268 0.551175 0.614058 0.675235 0.727985 0.747585 
0.733297 0.694873 0.640869 0.580941 0.529264 0.516897 
0.498623 0.468640 0.423217 0.360862 0.254511 0.147994 
0.076626 0.035711 0.013834 0.000000 0.000000 0.010710 
0.017749 0.025612 0.034708 0.045721 0.058688 0.072658 
0.089313 0.109166 0.131828 0.155365 0.187639 0.227944 
0.277763 0.338766 0.410217 0.483377 0.541634 0.591629 
0.634026 0.669360 0.697276 0.708003 0.698489 0.670602 
0.627004 0.572265 0.516077 0.482936 0.442415 0.395519 
0.342837 0.284310 0.202079 0.124129 0.072098 0.040882 
0.019572 0.000000 0.000000 0.013017 0.020478 0.029699 
0.040876 0.054143 0.067446 0.077957 0.088426 0.099807 
0.112761 0.127228 0.158754 0.205128 0.267695 0.347829 
0.442897 0.535751 0.596113 0.637643 0.661964 0.673088 
0.676580 0.676111 0.667777 0.646785 0.610579 0.559189 
0.497979 0.444164 0.382894 0.321281 0.263278 0.209456 
0.149998 0.099341 0.066998 0.046887 0.028048 0.000000 
0.000000 0.015317 0.023592 0.034217 0.047207 0.062227 
0.075260 0.081978 0.086303 0.089726 0.094211 0.102005 
0.133281 0.185356 0.259523 0.356766 0.472858 0.584077 
0.649397 0.686467 0.696859 0.687192 0.668378 0.653993 
0.641954 0.622937 0.590061 0.539610 0.473288 0.401560 
0.322847 0.249593 0.188631 0.141078 0.102514 0.076351 
0.062301 0.052975 0.037642 0.000000 0.000000 0.017435 
0.026658 0.038540 0.052847 0.068731 0.080639 0.083511 
0.082258 0.079042 0.077212 0.081251 0.111834 0.167733 
0.250849 0.361795 0.494683 0.621540 0.695913 0.733892 
0.736265 0.711308 0.674362 0.643292 0.621674 0.598828 
0.564631 0.512490 0.441267 0.355956 0.263905 0.182201 
0.120445 0.080634 0.060544 0.055191 0.057146 0.057609 
0.046626 0.000000 0.000000 0.021487 0.030724 0.041906 
0.054832 0.068861 0.079361 0.082740 0.083620 0.083735 
0.085602 0.092396 0.121825 0.171340 0.242794 0.337241 
0.450575 0.563417 0.644672 0.701481 0.730603 0.732772 
0.713789 0.675665 0.634168 0.590613 0.540907 0.481823 
0.412718 0.333640 0.248793 0.173285 0.116377 0.080858 
0.067497 0.068134 0.072067 0.070992 0.057129 0.000000 
0.000000 0.025076 0.033785 0.043510 0.054218 0.065743 
0.075485 0.081960 0.088714 0.096783 0.107105 0.120151 
0.146723 0.184136 0.234712 0.300576 0.380716 0.468479 
0.554080 0.633921 0.701320 0.746972 0.761390 0.719965 
0.655440 0.586926 0.518826 0.452308 0.387811 0.322197 
0.251790 0.187583 0.137211 0.103809 0.092361 0.093831 
0.095205 0.089359 0.070604 0.000000 0.000000 0.026747 
0.035140 0.043629 0.052432 0.061948 0.071784 0.082295 
0.095719 0.112505 0.132237 0.153003 0.175715 0.199997 
0.229196 0.266755 0.315055 0.379202 0.467226 0.566802 
0.668728 0.754780 0.800994 0.756335 0.671241 0.581383 
0.498034 0.425572 0.365254 0.312738 0.256502 0.203561 
0.159709 0.128005 0.117019 0.118289 0.117250 0.107655 
0.084987 0.000000 0.000000 0.025785 0.034571 0.042409 
0.049960 0.058399 0.069367 0.084475 0.104842 0.130345 
0.159429 0.188255 0.206987 0.218651 0.227641 0.238807 
0.258280 0.301121 0.387916 0.501890 0.631641 0.751340 
0.824591 0.779188 0.679412 0.573932 0.479455 0.402940 
0.346530 0.306088 0.263428 0.221609 0.184290 0.154007 
0.141498 0.140703 0.136877 0.124089 0.097770 0.000000 
0.000000 0.021313 0.031682 0.039833 0.047189 0.055947 
0.069110 0.088681 0.115446 0.148704 0.185849 0.221297 
0.236439 0.237085 0.228423 0.216696 0.211754 0.235676 
0.315724 0.436552 0.585144 0.729758 0.824291 0.783962 
0.678322 0.564326 0.463411 0.385111 0.332695 0.302950 
0.272967 0.241911 0.211048 0.182009 0.165506 0.159972 
0.152332 0.136152 0.105241 0.000000 0.000000 0.012295 
0.025563 0.035268 0.044025 0.055163 0.071373 0.093618 
0.123874 0.161044 0.201714 0.238890 0.251929 0.246824 
0.228929 0.205208 0.187227 0.198204 0.265428 0.380000 
0.529467 0.680414 0.783209 0.754731 0.656116 0.544769 
0.445299 0.369543 0.322052 0.300890 0.281668 0.260090 
0.234863 0.206249 0.181740 0.166819 0.153183 0.133266 
0.097623 0.000000 0.000000 0.000496 0.015483 0.026908 
0.038702 0.054533 0.073254 0.092090 0.115964 0.144424 
0.175283 0.203670 0.220930 0.230144 0.235190 0.240394 
0.250900 0.276490 0.331016 0.409658 0.506567 0.601552 
0.662992 0.639412 0.566144 0.480974 0.402238 0.339910 
0.299187 0.280886 0.266239 0.249506 0.226712 0.195694 
0.157363 0.126125 0.103827 0.083839 0.055278 0.000000 
0.000000 -0.008602 0.006887 0.019426 0.033862 0.053964 
0.074416 0.088716 0.105325 0.124497 0.145156 0.164127 
0.186153 0.210355 0.239841 0.277370 0.322345 0.367197 
0.404332 0.442679 0.484900 0.524554 0.546223 0.528448 
0.480338 0.420786 0.362071 0.312075 0.276260 0.257696 
0.245243 0.232149 0.212265 0.181400 0.134803 0.092000 
0.063021 0.043114 0.022116 0.000000 0.000000 -0.013484 
0.001100 0.013655 0.029518 0.052397 0.073630 0.083530 
0.093358 0.104011 0.115566 0.126651 0.153529 0.192163 
0.245323 0.315052 0.396607 0.464388 0.483851 0.483057 
0.472748 0.459417 0.442433 0.426719 0.400226 0.364223 
0.324032 0.284673 0.251572 0.230150 0.218060 0.207810 
0.191405 0.162770 0.113292 0.063706 0.030403 0.012320 
0.002240 0.000000 0.000000 -0.014218 -0.001313 0.010003 
0.025559 0.049102 0.070124 0.076598 0.080994 0.084774 
0.089229 0.095034 0.125995 0.176973 0.250731 0.349097 
0.464877 0.556582 0.561620 0.527154 0.470317 0.408898 
0.355761 0.336805 0.326395 0.310556 0.286558 0.255613 
0.222876 0.196757 0.184114 0.176790 0.164849 0.139879 
0.091082 0.038029 0.002577 -0.011224 -0.007731 0.000000 
0.000000 -0.012586 -0.000553 0.008468 0.021786 0.043725 
0.063665 0.068070 0.068745 0.067693 0.067426 0.070655 
0.103789 0.163385 0.252606 0.373144 0.516326 0.628889 
0.624929 0.565124 0.471040 0.369673 0.285847 0.259290 
0.258535 0.258287 0.247315 0.222190 0.187447 0.155572 
0.142585 0.139556 0.133879 0.113484 0.065898 0.009740 
-0.026681 -0.033937 -0.018227 0.000000 0.000000 -0.009719 
0.002704 0.010518 0.021526 0.040311 0.058497 0.063835 
0.066112 0.066867 0.068135 0.072243 0.107134 0.167463 
0.254298 0.367793 0.498944 0.596932 0.580805 0.509820 
0.405095 0.295675 0.211022 0.192045 0.213272 0.246120 
0.268369 0.262318 0.218280 0.147272 0.095869 0.068923 
0.057675 0.046787 0.019953 -0.013316 -0.030224 -0.025891 
-0.017565 0.000000 0.000000 -0.003112 0.008131 0.015599 
0.025041 0.040229 0.055995 0.063585 0.070369 0.076994 
0.084045 0.091805 0.128157 0.184259 0.258289 0.348227 
0.444363 0.504801 0.471353 0.393568 0.292366 0.195871 
0.132093 0.131100 0.180309 0.256499 0.328344 0.359199 
0.314043 0.186685 0.070671 -0.001662 -0.028771 -0.027384 
-0.023021 -0.015897 0.002812 0.023494 0.018679 0.000000 
0.000000 0.002991 0.012465 0.020655 0.029655 0.041687 
0.054657 0.064101 0.075050 0.087429 0.100687 0.113517 
0.150418 0.201400 0.262684 0.330112 0.392388 0.415422 
0.364372 0.278357 0.180601 0.098840 0.056923 0.069510 
0.137528 0.248672 0.368185 0.444359 0.415885 0.245442 
0.066121 -0.054103 -0.098081 -0.082793 -0.050647 -0.007525 
0.044658 0.084012 0.078908 0.000000 0.000000 -0.007223 
0.008183 0.022338 0.034346 0.045295 0.055738 0.066140 
0.080362 0.097628 0.116537 0.134813 0.172175 0.218062 
0.266975 0.312521 0.341569 0.327674 0.258757 0.163719 
0.068945 0.001006 -0.023759 -0.004990 0.072177 0.210051 
0.374705 0.501254 0.500053 0.299264 0.054333 -0.117725 
-0.177129 -0.146348 -0.093396 -0.021802 0.061783 0.124978 
0.124370 0.000000 0.000000 -0.056614 -0.016038 0.015359 
0.037091 0.051628 0.061081 0.070684 0.086268 0.106466 
0.129208 0.151601 0.189601 0.230660 0.267399 0.291163 
0.287247 0.237711 0.151851 0.048233 -0.044569 -0.103316 
-0.123120 -0.110860 -0.035604 0.122095 0.330322 0.506624 
0.524701 0.296143 -0.025756 -0.253533 -0.319001 -0.273454 
-0.214074 -0.116822 0.008327 0.107728 0.093312 0.000000 
0.000000 0.000000 0.000000 0.000000 0.000000 0.000000 
0.000000 0.000000 0.000000 0.000000 0.000000 0.000000 
0.000000 0.000000 0.000000 0.000000 0.000000 0.000000 
0.000000 0.000000 0.000000 0.000000 0.000000 0.000000 
0.000000 0.000000 0.000000 0.000000 0.000000 0.000000 
0.000000 0.000000 0.000000 0.000000 0.000000 0.000000 
0.000000 0.000000 0.000000 0.000000 
