# vtk DataFile Version 1.0
vtk output
ASCII
DATASET POLYDATA
POINTS 1600 float
-1.045800 0.009312 -1.041420 -0.942922 0.051767 -1.045589 
-0.844566 0.093283 -1.048201 -0.750407 0.133235 -1.049612 
-0.660117 0.170998 -1.050178 -0.573370 0.205947 -1.050254 
-0.489844 0.237469 -1.050192 -0.409364 0.265355 -1.050166 
-0.331930 0.289885 -1.050140 -0.257557 0.311367 -1.050063 
-0.186256 0.330109 -1.049885 -0.118039 0.346420 -1.049556 
-0.052896 0.360569 -1.049044 0.009321 0.372584 -1.048431 
0.068813 0.382403 -1.047842 0.125781 0.389960 -1.047400 
0.180426 0.395194 -1.047232 0.232950 0.398040 -1.047461 
0.283508 0.398492 -1.048108 0.332186 0.396646 -1.049017 
0.379057 0.392604 -1.050013 0.424197 0.386473 -1.050921 
0.467680 0.378355 -1.051567 0.509582 0.368353 -1.051793 
0.549953 0.356538 -1.051617 0.588838 0.342961 -1.051158 
0.626277 0.327676 -1.050534 0.662313 0.310736 -1.049864 
0.696989 0.292194 -1.049267 0.730404 0.272118 -1.048824 
0.762811 0.250618 -1.048519 0.794489 0.227810 -1.048321 
0.825714 0.203810 -1.048199 0.856764 0.178734 -1.048120 
0.887912 0.152687 -1.048061 0.919364 0.125586 -1.048123 
0.951268 0.097193 -1.048515 0.983771 0.067264 -1.049448 
1.017020 0.035555 -1.051133 1.051160 0.001824 -1.053780 
-1.050175 0.022260 -0.988763 -0.947236 0.065902 -0.990629 
-0.848203 0.108417 -0.992153 -0.753009 0.149315 -0.993335 
-0.661587 0.188107 -0.994174 -0.573869 0.224302 -0.994669 
-0.489788 0.257418 -0.994821 -0.409246 0.287233 -0.994676 
-0.332104 0.313836 -0.994336 -0.258224 0.337336 -0.993906 
-0.187466 0.357839 -0.993490 -0.119692 0.375456 -0.993195 
-0.054762 0.390293 -0.993105 0.007454 0.402466 -0.993190 
0.067085 0.412090 -0.993374 0.124259 0.419279 -0.993582 
0.179107 0.424151 -0.993739 0.231756 0.426820 -0.993768 
0.282325 0.427380 -0.993644 0.330916 0.425893 -0.993421 
0.377628 0.422412 -0.993166 0.422561 0.416993 -0.992944 
0.465813 0.409693 -0.992819 0.507485 0.400559 -0.992848 
0.547666 0.389570 -0.993011 0.586444 0.376661 -0.993240 
0.623903 0.361771 -0.993468 0.660131 0.344836 -0.993630 
0.695212 0.325794 -0.993658 0.729259 0.304660 -0.993523 
0.762443 0.281661 -0.993300 0.794950 0.257058 -0.993079 
0.826962 0.231109 -0.992949 0.858664 0.204076 -0.993000 
0.890236 0.176197 -0.993312 0.921819 0.147330 -0.993793 
0.953517 0.117022 -0.994211 0.985434 0.084813 -0.994325 
1.017675 0.050237 -0.993900 1.050342 0.012834 -0.992695 
-1.051542 0.035135 -0.935412 -0.948951 0.080491 -0.935871 
-0.849858 0.124197 -0.936660 -0.754339 0.165967 -0.937585 
-0.662467 0.205516 -0.938453 -0.574318 0.242557 -0.939072 
-0.489963 0.276808 -0.939253 -0.409354 0.308090 -0.938973 
-0.332297 0.336352 -0.938410 -0.258593 0.361548 -0.937753 
-0.188041 0.383634 -0.937191 -0.120440 0.402565 -0.936912 
-0.055599 0.418323 -0.937066 0.006605 0.431062 -0.937559 
0.066274 0.440997 -0.938203 0.123508 0.448346 -0.938809 
0.178405 0.453325 -0.939190 0.231068 0.456151 -0.939160 
0.281597 0.456975 -0.938660 0.330102 0.455831 -0.937860 
0.376691 0.452744 -0.936952 0.421471 0.447736 -0.936126 
0.464552 0.440832 -0.935576 0.506041 0.432046 -0.935472 
0.546056 0.421316 -0.935777 0.584715 0.408535 -0.936334 
0.622139 0.393596 -0.936987 0.658446 0.376391 -0.937579 
0.693757 0.356812 -0.937952 0.728191 0.334856 -0.938022 
0.761869 0.310783 -0.937890 0.794909 0.284900 -0.937689 
0.827432 0.257511 -0.937553 0.859558 0.228923 -0.937612 
0.891405 0.199416 -0.937986 0.923076 0.168840 -0.938522 
0.954658 0.136690 -0.938849 0.986238 0.102452 -0.938589 
1.017903 0.065608 -0.937363 1.049740 0.025644 -0.934792 
-1.050875 0.047765 -0.881470 -0.948882 0.095153 -0.881215 
-0.850154 0.140186 -0.881555 -0.754819 0.182809 -0.882229 
-0.663003 0.222966 -0.882972 -0.574831 0.260604 -0.883520 
-0.490425 0.295665 -0.883617 -0.409767 0.328052 -0.883213 
-0.332668 0.357618 -0.882514 -0.258930 0.384210 -0.881737 
-0.188354 0.407678 -0.881102 -0.120743 0.427870 -0.880827 
-0.055907 0.444679 -0.881083 0.006279 0.458260 -0.881752 
0.065918 0.468869 -0.882600 0.123111 0.476762 -0.883398 
0.177960 0.482197 -0.883913 0.230567 0.485427 -0.883916 
0.281036 0.486624 -0.883334 0.329473 0.485809 -0.882373 
0.375981 0.482986 -0.881264 0.420668 0.478162 -0.880241 
0.463639 0.471342 -0.879535 0.505001 0.462525 -0.879355 
0.544885 0.451647 -0.879664 0.583435 0.438607 -0.880288 
0.620796 0.423303 -0.881049 0.657110 0.405634 -0.881770 
0.692522 0.385499 -0.882275 0.727160 0.362892 -0.882462 
0.761111 0.338056 -0.882419 0.794458 0.311272 -0.882268 
0.827281 0.282823 -0.882129 0.859661 0.252992 -0.882124 
0.891681 0.222038 -0.882360 0.923422 0.189836 -0.882719 
0.954971 0.155940 -0.882895 0.986413 0.119893 -0.882579 
1.017834 0.081241 -0.881458 1.049318 0.039529 -0.879221 
-1.049147 0.059981 -0.827044 -0.947845 0.109511 -0.826560 
-0.849716 0.155949 -0.826675 -0.754875 0.199458 -0.827134 
-0.663437 0.240199 -0.827683 -0.575518 0.278334 -0.828068 
-0.491229 0.314018 -0.828039 -0.410564 0.347246 -0.827549 
-0.333374 0.377820 -0.826796 -0.259498 0.405526 -0.825990 
-0.188780 0.430155 -0.825341 -0.121060 0.451494 -0.825061 
-0.056184 0.469380 -0.825313 0.005979 0.483949 -0.825982 
0.065552 0.495450 -0.826841 0.122654 0.504133 -0.827667 
0.177410 0.510247 -0.828233 0.229939 0.514040 -0.828316 
0.280356 0.515676 -0.827842 0.328756 0.515171 -0.826998 
0.375236 0.512523 -0.825999 0.419891 0.507731 -0.825058 
0.462817 0.500795 -0.824390 0.504113 0.491711 -0.824187 
0.543916 0.480435 -0.824422 0.582387 0.466902 -0.824947 
0.619686 0.451046 -0.825612 0.655972 0.432801 -0.826264 
0.691405 0.412103 -0.826753 0.726122 0.388955 -0.826986 
0.760196 0.363551 -0.827018 0.793690 0.336109 -0.826928 
0.826667 0.306852 -0.826795 0.859190 0.276000 -0.826699 
0.891323 0.243757 -0.826713 0.923142 0.210037 -0.826796 
0.954736 0.174512 -0.826816 0.986192 0.136848 -0.826636 
1.017598 0.096710 -0.826120 1.049041 0.053764 -0.825133 
-1.047330 0.071614 -0.772237 -0.946659 0.123184 -0.771806 
-0.849168 0.171051 -0.771852 -0.754930 0.215534 -0.772168 
-0.664014 0.256956 -0.772544 -0.576491 0.295638 -0.772771 
-0.492432 0.331893 -0.772647 -0.411825 0.365799 -0.772135 
-0.334572 0.397145 -0.771407 -0.260563 0.425704 -0.770643 
-0.189692 0.451251 -0.770025 -0.121851 0.473559 -0.769733 
-0.056930 0.492447 -0.769912 0.005209 0.508019 -0.770463 
0.064711 0.520486 -0.771200 0.121724 0.530061 -0.771933 
0.176394 0.536956 -0.772476 0.228867 0.541382 -0.772641 
0.279267 0.543480 -0.772359 0.327681 0.543265 -0.771775 
0.374192 0.540738 -0.771051 0.418880 0.535903 -0.770350 
0.461830 0.528762 -0.769836 0.503127 0.519315 -0.769657 
0.542912 0.507550 -0.769799 0.581353 0.493445 -0.770159 
0.618620 0.476978 -0.770635 0.654882 0.458127 -0.771120 
0.690307 0.436871 -0.771511 0.725038 0.413231 -0.771738 
0.759148 0.387339 -0.771819 0.792697 0.359347 -0.771785 
0.825747 0.329405 -0.771670 0.858358 0.297665 -0.771505 
0.890592 0.264266 -0.771323 0.922523 0.229162 -0.771164 
0.954234 0.192151 -0.771074 0.985807 0.153029 -0.771100 
1.017326 0.111588 -0.771286 1.048874 0.067624 -0.771680 
-1.046381 0.082496 -0.717156 -0.946124 0.135801 -0.716856 
-0.849124 0.185061 -0.716927 -0.755400 0.230660 -0.717201 
-0.664972 0.272981 -0.717510 -0.577862 0.312407 -0.717686 
-0.494087 0.349316 -0.717566 -0.413627 0.383831 -0.717122 
-0.336415 0.415773 -0.716493 -0.262382 0.444945 -0.715825 
-0.191455 0.471149 -0.715266 -0.123566 0.494187 -0.714962 
-0.058635 0.513900 -0.715032 0.003480 0.530360 -0.715406 
0.062942 0.543725 -0.715946 0.119914 0.554156 -0.716512 
0.174559 0.561814 -0.716965 0.227040 0.566857 -0.717166 
0.277490 0.569394 -0.717062 0.325983 0.569447 -0.716743 
0.372590 0.567027 -0.716317 0.417380 0.562148 -0.715892 
0.460424 0.554820 -0.715574 0.501799 0.545057 -0.715460 
0.541640 0.532868 -0.715546 0.580121 0.518263 -0.715772 
0.617414 0.501251 -0.716076 0.653692 0.481844 -0.716397 
0.689127 0.460050 -0.716672 0.723866 0.435902 -0.716858 
0.757991 0.409493 -0.716950 0.791571 0.380923 -0.716952 
0.824677 0.350295 -0.716869 0.857380 0.317710 -0.716703 
0.889748 0.283264 -0.716464 0.921848 0.246934 -0.716227 
0.953740 0.208603 -0.716128 0.985485 0.168151 -0.716304 
1.017146 0.125455 -0.716891 1.048782 0.080395 -0.718025 
-1.046644 0.092557 -0.661961 -0.946558 0.147203 -0.661758 
-0.849836 0.197778 -0.661897 -0.756459 0.244623 -0.662226 
-0.666404 0.288080 -0.662596 -0.579653 0.328490 -0.662854 
-0.496184 0.366187 -0.662853 -0.415959 0.401303 -0.662562 
-0.338921 0.433720 -0.662090 -0.265011 0.463306 -0.661554 
-0.194169 0.489930 -0.661071 -0.126337 0.513460 -0.660759 
-0.061445 0.533789 -0.660713 0.000648 0.550963 -0.660893 
0.060109 0.565086 -0.661209 0.117106 0.576262 -0.661571 
0.171806 0.584595 -0.661887 0.224375 0.590190 -0.662068 
0.274945 0.593123 -0.662074 0.323583 0.593425 -0.661957 
0.370349 0.591121 -0.661775 0.415304 0.586237 -0.661590 
0.458508 0.578799 -0.661461 0.500030 0.568832 -0.661441 
0.540003 0.556358 -0.661530 0.578597 0.541396 -0.661693 
0.615986 0.523968 -0.661895 0.652339 0.504094 -0.662103 
0.687830 0.481792 -0.662281 0.722608 0.457101 -0.662405 
0.756768 0.430097 -0.662472 0.790397 0.400866 -0.662486 
0.823580 0.369493 -0.662449 0.856403 0.336063 -0.662362 
0.888952 0.300656 -0.662232 0.921274 0.263254 -0.662116 
0.953393 0.223762 -0.662114 0.985330 0.182081 -0.662327 
1.017105 0.138111 -0.662859 1.048741 0.091754 -0.663810 
-1.047729 0.101846 -0.606880 -0.947690 0.157487 -0.606729 
-0.851124 0.209266 -0.606947 -0.757984 0.257408 -0.607383 
-0.668222 0.302139 -0.607885 -0.581789 0.343682 -0.608301 
-0.498636 0.382261 -0.608484 -0.418709 0.417978 -0.608390 
-0.341939 0.450797 -0.608104 -0.268261 0.480673 -0.607717 
-0.197608 0.507560 -0.607321 -0.129912 0.531413 -0.607009 
-0.065098 0.552197 -0.606857 -0.003027 0.569939 -0.606853 
0.056462 0.584689 -0.606952 0.113532 0.596499 -0.607106 
0.168343 0.605419 -0.607269 0.221058 0.611500 -0.607396 
0.271799 0.614790 -0.607463 0.320629 0.615327 -0.607489 
0.367600 0.613153 -0.607496 0.412766 0.608307 -0.607507 
[...]
POINT_DATA 1600
SCALARS scalars float
LOOKUP_TABLE default
0.000000 0.000000 0.000000 0.000000 0.000000 0.000000 
0.000000 0.000000 0.000000 0.000000 0.000000 0.000000 
0.000000 0.000000 0.000000 0.000000 0.000000 0.000000 
0.000000 0.000000 0.000000 0.000000 0.000000 0.000000 
0.000000 0.000000 0.000000 0.000000 0.000000 0.000000 
0.000000 0.000000 0.000000 0.000000 0.000000 0.000000 
0.000000 0.000000 0.000000 0.000000 0.000000 -0.144157 
-0.026599 -0.013856 -0.090117 -0.247474 -0.439968 -0.603098 
-0.740071 -0.834278 -0.881840 -0.887012 -0.875494 -0.851588 
-0.817221 -0.775947 -0.732731 -0.693038 -0.664084 -0.658058 
-0.678197 -0.723886 -0.792855 -0.955196 -1.179727 -1.425404 
-1.673917 -1.900539 -2.036023 -1.867696 -1.628619 -1.358496 
-1.092457 -0.859339 -0.912603 -1.155176 -1.311320 -1.283067 
-1.014306 0.000000 0.000000 -0.229984 -0.123412 -0.088162 
-0.117385 -0.208307 -0.344309 -0.489183 -0.632459 -0.755951 
-0.848207 -0.904572 -0.912237 -0.900874 -0.880875 -0.857493 
-0.834994 -0.816139 -0.801457 -0.797353 -0.808242 -0.837635 
-0.888740 -1.078814 -1.344561 -1.618004 -1.869127 -2.064040 
-2.127972 -1.875364 -1.605008 -1.343583 -1.109401 -0.914864 
-1.003394 -1.230153 -1.338009 -1.280681 -1.040832 0.000000 
0.000000 -0.325011 -0.235213 -0.179660 -0.163093 -0.189878 
-0.267851 -0.384804 -0.518515 -0.653450 -0.776333 -0.877281 
-0.913906 -0.926881 -0.931270 -0.933276 -0.937112 -0.945903 
-0.958822 -0.974878 -0.997709 -1.032202 -1.084615 -1.273692 
-1.526016 -1.767843 -1.966374 -2.091112 -2.085611 -1.826048 
-1.577918 -1.355470 -1.165909 -1.011811 -1.072566 -1.206761 
-1.233904 -1.147804 -0.953337 0.000000 0.000000 -0.398118 
-0.343162 -0.278135 -0.221830 -0.189484 -0.211093 -0.294085 
-0.406911 -0.538050 -0.676072 -0.810064 -0.881645 -0.929504 
-0.968599 -1.004478 -1.040939 -1.082521 -1.131446 -1.180506 
-1.231211 -1.286829 -1.352434 -1.516147 -1.711803 -1.879046 
-1.992451 -2.033692 -1.973394 -1.752516 -1.553720 -1.381238 
-1.234298 -1.108508 -1.106769 -1.127288 -1.077536 -0.973267 
-0.829363 0.000000 0.000000 -0.428871 -0.429659 -0.371615 
-0.286961 -0.204493 -0.173987 -0.218978 -0.303327 -0.419353 
-0.558875 -0.712649 -0.820652 -0.911003 -0.994218 -1.073233 
-1.150338 -1.230508 -1.319977 -1.408332 -1.494026 -1.576265 
-1.655082 -1.774922 -1.888036 -1.959621 -1.978610 -1.941865 
-1.845041 -1.679200 -1.535393 -1.408871 -1.292010 -1.175113 
-1.102280 -1.026448 -0.924562 -0.823724 -0.747386 0.000000 
0.000000 -0.414088 -0.458688 -0.425174 -0.346053 -0.253148 
-0.201167 -0.221187 -0.280258 -0.374247 -0.498476 -0.646910 
-0.771248 -0.887839 -1.001873 -1.113326 -1.222273 -1.331697 
-1.448639 -1.564128 -1.674392 -1.775142 -1.861695 -1.944630 
-1.994746 -1.999051 -1.957625 -1.876729 -1.765482 -1.637142 
-1.521366 -1.410514 -1.296106 -1.169212 -1.053740 -0.941837 
-0.835662 -0.761784 -0.743467 0.000000 0.000000 -0.385562 
-0.437598 -0.433335 -0.392715 -0.336297 -0.303710 -0.321157 
-0.365959 -0.437143 -0.533159 -0.651360 -0.763654 -0.877125 
-0.993609 -1.111878 -1.230637 -1.349140 -1.470470 -1.591716 
-1.708961 -1.817257 -1.910760 -1.985950 -2.021688 -2.011939 
-1.958581 -1.868649 -1.752344 -1.622260 -1.493253 -1.363200 
-1.229703 -1.090021 -0.980549 -0.898141 -0.827938 -0.782802 
-0.772159 0.000000 0.000000 -0.353764 -0.409303 -0.433148 
-0.434156 -0.421806 -0.416082 -0.433541 -0.465793 -0.514578 
-0.580995 -0.665279 -0.762174 -0.869391 -0.985412 -1.108144 
-1.235169 -1.361176 -1.482423 -1.603749 -1.721517 -1.830897 
-1.926059 -2.001800 -2.038294 -2.029453 -1.976306 -1.884727 
-1.761686 -1.608407 -1.451408 -1.294371 -1.140248 -0.991084 
-0.907718 -0.874932 -0.849348 -0.830942 -0.816761 0.000000 
0.000000 -0.324454 -0.380826 -0.430776 -0.473486 -0.508188 
-0.533613 -0.553443 -0.574634 -0.601519 -0.637925 -0.687171 
-0.766619 -0.865176 -0.978124 -1.102636 -1.235272 -1.366177 
-1.484295 -1.602077 -1.716615 -1.823858 -1.918831 -2.000889 
-2.047243 -2.047679 -2.000663 -1.909760 -1.777026 -1.590657 
-1.400761 -1.216471 -1.045120 -0.892377 -0.843561 -0.863696 
-0.879354 -0.879274 -0.851796 0.000000 0.000000 -0.303852 
-0.358582 -0.431953 -0.514005 -0.594429 -0.651762 -0.675735 
-0.687136 -0.693071 -0.700517 -0.716438 -0.777451 -0.865403 
-0.972791 -1.096010 -1.230517 -1.362715 -1.476078 -1.588688 
-1.698813 -1.803690 -1.899693 -1.991131 -2.050584 -2.062513 
-2.022016 -1.929956 -1.784121 -1.565459 -1.346230 -1.140349 
-0.958834 -0.810428 -0.795489 -0.857988 -0.901562 -0.907435 
-0.860477 0.000000 0.000000 -0.299035 -0.348487 -0.441869 
-0.559023 -0.679864 -0.765928 -0.794808 -0.797539 -0.784432 
-0.766096 -0.753624 -0.796001 -0.871523 -0.970734 -1.089064 
-1.220601 -1.349560 -1.457958 -1.565675 -1.672570 -1.777513 
-1.878413 -1.979553 -2.049793 -2.069774 -2.031331 -1.932986 
-1.770904 -1.530321 -1.292421 -1.075348 -0.893698 -0.759310 
-0.769920 -0.852492 -0.902991 -0.900323 -0.830373 0.000000 
0.000000 -0.310582 -0.350884 -0.433100 -0.539826 -0.654783 
-0.741660 -0.776533 -0.790368 -0.790900 -0.786013 -0.783952 
-0.829751 -0.903512 -0.997550 -1.108745 -1.232495 -1.356562 
-1.468693 -1.583112 -1.698884 -1.813866 -1.924649 -2.024705 
-2.085169 -2.091434 -2.037739 -1.925531 -1.756939 -1.535491 
-1.322406 -1.131772 -0.974223 -0.857435 -0.848350 -0.878113 
-0.873673 -0.828836 -0.741845 0.000000 0.000000 -0.327557 
-0.357351 -0.420892 -0.506180 -0.602813 -0.682740 -0.725503 
-0.756401 -0.779554 -0.799082 -0.819330 -0.872582 -0.944963 
-1.031931 -1.132145 -1.242943 -1.358589 -1.477040 -1.602207 
-1.731463 -1.860610 -1.983817 -2.077361 -2.119382 -2.104427 
-2.031018 -1.904755 -1.736436 -1.554798 -1.383201 -1.230219 
-1.101207 -0.998550 -0.944483 -0.894040 -0.820545 -0.728926 
-0.624368 0.000000 0.000000 -0.344869 -0.364575 -0.408035 
-0.469465 -0.544469 -0.615476 -0.667560 -0.717343 -0.765348 
-0.812051 -0.858031 -0.919053 -0.989045 -1.067132 -1.153878 
-1.248938 -1.354223 -1.479134 -1.615764 -1.759394 -1.903332 
-2.038903 -2.123750 -2.145216 -2.108341 -2.016320 -1.878846 
-1.715758 -1.582029 -1.456693 -1.342703 -1.240069 -1.146158 
-1.036142 -0.899673 -0.758342 -0.622661 -0.500004 0.000000 
0.000000 -0.357930 -0.369686 -0.393433 -0.430515 -0.483014 
-0.544787 -0.606983 -0.676294 -0.749611 -0.823777 -0.895557 
-0.964410 -1.031613 -1.100163 -1.172959 -1.252496 -1.347984 
-1.478292 -1.625234 -1.781770 -1.938532 -2.083872 -2.159687 
-2.162438 -2.106793 -2.000389 -1.856607 -1.703395 -1.617950 
-1.537130 -1.458299 -1.376393 -1.284538 -1.117351 -0.901182 
-0.699382 -0.524987 -0.386532 0.000000 0.000000 -0.362703 
-0.370056 -0.376392 -0.390652 -0.421935 -0.475321 -0.547539 
-0.635924 -0.733496 -0.833153 -0.927414 -1.003664 -1.068185 
-1.127824 -1.188514 -1.256166 -1.345191 -1.478630 -1.632834 
-1.798412 -1.963399 -2.113380 -2.181410 -2.170756 -2.102780 
-1.988856 -1.845420 -1.706506 -1.662987 -1.619017 -1.566762 
-1.496992 -1.400027 -1.183500 -0.903944 -0.653753 -0.448427 
-0.300065 0.000000 0.000000 -0.353498 -0.365150 -0.366277 
-0.369864 -0.389245 -0.436382 -0.511822 -0.608176 -0.716452 
-0.827271 -0.930572 -1.012333 -1.079230 -1.139792 -1.201738 
-1.272548 -1.365415 -1.497863 -1.650402 -1.813094 -1.973341 
-2.116047 -2.177375 -2.162479 -2.093219 -1.982138 -1.846456 
-1.721887 -1.700038 -1.670323 -1.623187 -1.549324 -1.440388 
-1.197397 -0.891250 -0.622140 -0.406525 -0.260643 0.000000 
0.000000 -0.335307 -0.362117 -0.379594 -0.396626 -0.422820 
-0.466776 -0.529088 -0.606199 -0.692818 -0.783135 -0.870711 
-0.955964 -1.039351 -1.125044 -1.217379 -1.319671 -1.433777 
-1.560826 -1.697536 -1.837535 -1.971834 -2.089038 -2.142069 
-2.132011 -2.073169 -1.974626 -1.849881 -1.729682 -1.693946 
-1.640937 -1.566781 -1.468808 -1.345437 -1.111742 -0.833803 
-0.595270 -0.406335 -0.279412 0.000000 0.000000 -0.320033 
-0.359761 -0.392723 -0.423875 -0.458939 -0.500868 -0.548275 
-0.603440 -0.664829 -0.730415 -0.797638 -0.887129 -0.989612 
-1.103806 -1.230589 -1.369286 -1.509072 -1.631134 -1.751737 
-1.867740 -1.973655 -2.061956 -2.106485 -2.102750 -2.055990 
-1.971479 -1.858530 -1.740916 -1.680382 -1.596104 -1.490589 
-1.367368 -1.230244 -1.017902 -0.782889 -0.585366 -0.430782 
-0.327511 0.000000 0.000000 -0.308186 -0.358804 -0.405724 
-0.450346 -0.494613 -0.534816 -0.566505 -0.598575 -0.633378 
-0.672999 -0.719173 -0.813537 -0.935725 -1.078545 -1.239459 
-1.414221 -1.580637 -1.701033 -1.808913 -1.903701 -1.983086 
-2.043414 -2.077595 -2.077435 -2.040174 -1.967444 -1.864496 
-1.747625 -1.657907 -1.539991 -1.402893 -1.255693 -1.106432 
-0.922163 -0.737696 -0.586617 -0.470142 -0.391952 0.000000 
0.000000 -0.300320 -0.360003 -0.418823 -0.475000 -0.526958 
-0.564665 -0.580743 -0.590290 -0.599600 -0.615118 -0.643266 
-0.742727 -0.883220 -1.051810 -1.242526 -1.447952 -1.638164 
-1.762539 -1.864399 -1.944675 -2.003546 -2.040938 -2.061554 
-2.058546 -2.024542 -1.958136 -1.861235 -1.743553 -1.626351 
-1.477317 -1.311525 -1.143036 -0.983574 -0.829635 -0.697492 
-0.593983 -0.515987 -0.461936 0.000000 0.000000 -0.296950 
-0.364057 -0.432288 -0.496906 -0.553156 -0.586389 -0.587856 
-0.577312 -0.564850 -0.561282 -0.577928 -0.681998 -0.837405 
-1.026256 -1.238888 -1.464802 -1.671884 -1.807435 -1.912803 
-1.989033 -2.037574 -2.061096 -2.063744 -2.048227 -2.008144 
-1.940040 -1.843600 -1.723960 -1.586420 -1.413008 -1.223864 
-1.037655 -0.869919 -0.744587 -0.661461 -0.602892 -0.560989 
-0.528651 0.000000 0.000000 -0.322142 -0.385271 -0.446485 
-0.503163 -0.552816 -0.584158 -0.590503 -0.588571 -0.585918 
-0.590813 -0.612225 -0.707551 -0.845526 -1.012009 -1.200401 
-1.404019 -1.602565 -1.759246 -1.894622 -2.002915 -2.078832 
-2.119323 -2.105859 -2.063546 -1.999853 -1.915092 -1.811353 
-1.694123 -1.559670 -1.387990 -1.199217 -1.012900 -0.845821 
-0.741939 -0.689548 -0.653631 -0.624018 -0.591426 0.000000 
0.000000 -0.353989 -0.409380 -0.458145 -0.501629 -0.541356 
-0.572865 -0.593102 -0.612135 -0.633028 -0.659128 -0.694207 
-0.773593 -0.878802 -1.003702 -1.147066 -1.307841 -1.483699 
-1.664422 -1.839862 -1.996338 -2.118668 -2.193036 -2.163708 
-2.087234 -1.992505 -1.885582 -1.771787 -1.658603 -1.539751 
-1.382981 -1.206421 -1.028892 -0.867210 -0.777857 -0.742922 
-0.716399 -0.686772 -0.643838 0.000000 0.000000 -0.379362 
-0.428341 -0.466102 -0.497891 -0.529103 -0.562242 -0.597633 
-0.638394 -0.683549 -0.731938 -0.782369 -0.844404 -0.915116 
-0.996953 -1.093843 -1.209751 -1.360334 -1.563418 -1.776873 
-1.980648 -2.150280 -2.260582 -2.216981 -2.108159 -1.984433 
-1.856802 -1.732941 -1.622446 -1.521434 -1.382603 -1.221588 
-1.055803 -0.901487 -0.820399 -0.793544 -0.769848 -0.736484 
-0.682137 0.000000 0.000000 -0.395803 -0.440502 -0.469836 
-0.492795 -0.518596 -0.555716 -0.606524 -0.668169 -0.735909 
-0.804468 -0.868088 -0.912937 -0.950580 -0.991606 -1.045056 
-1.119821 -1.247150 -1.467899 -1.712590 -1.955902 -2.165703 
-2.307199 -2.255440 -2.123464 -1.978089 -1.834238 -1.701560 
-1.591900 -1.506999 -1.386361 -1.242616 -1.090850 -0.945722 
-0.866423 -0.837911 -0.810520 -0.770364 -0.704692 0.000000 
0.000000 -0.401215 -0.444301 -0.468907 -0.487275 -0.512298 
-0.556255 -0.621507 -0.701575 -0.788031 -0.871792 -0.943044 
-0.972720 -0.982170 -0.988523 -1.005836 -1.048194 -1.157836 
-1.388171 -1.652821 -1.921712 -2.157439 -2.319613 -2.270359 
-2.130919 -1.975506 -1.822199 -1.682991 -1.572276 -1.498763 
-1.394255 -1.267913 -1.131551 -0.997094 -0.912972 -0.872856 
-0.835301 -0.785647 -0.709215 0.000000 0.000000 -0.390266 
-0.432375 -0.457584 -0.478961 -0.510992 -0.564636 -0.639229 
-0.729570 -0.824746 -0.913422 -0.983694 -1.005910 -1.002379 
-0.992444 -0.993186 -1.022546 -1.124916 -1.350352 -1.613721 
-1.882062 -2.117275 -2.280388 -2.246909 -2.122086 -1.973570 
-1.821167 -1.679700 -1.566375 -1.496605 -1.403352 -1.292004 
-1.170148 -1.045535 -0.947199 -0.882330 -0.826033 -0.764372 
-0.681491 0.000000 0.000000 -0.349809 -0.378513 -0.409927 
-0.449533 -0.503411 -0.566919 -0.630983 -0.702824 -0.776641 
-0.846606 -0.906813 -0.948335 -0.981189 -1.015557 -1.061605 
-1.130513 -1.248587 -1.441198 -1.654486 -1.863860 -2.042609 
-2.165273 -2.152931 -2.067713 -1.950580 -1.817143 -1.682523 
-1.565497 -1.487096 -1.394035 -1.288694 -1.173594 -1.050052 
-0.919016 -0.804977 -0.712007 -0.633935 -0.561621 0.000000 
0.000000 -0.310003 -0.324961 -0.361343 -0.417974 -0.493268 
-0.565729 -0.616793 -0.668081 -0.718628 -0.767459 -0.813604 
-0.876586 -0.949474 -1.033512 -1.133039 -1.252798 -1.394658 
-1.546859 -1.701013 -1.842113 -1.955230 -2.027899 -2.043062 
-2.009421 -1.933760 -1.826238 -1.701600 -1.579188 -1.482635 
-1.382215 -1.277499 -1.166774 -1.046121 -0.888886 -0.730191 
-0.600251 -0.500044 -0.427346 0.000000 0.000000 -0.274576 
-0.275616 -0.315272 -0.385935 -0.479306 -0.558509 -0.596035 
-0.627041 -0.654865 -0.682796 -0.714054 -0.798214 -0.910282 
-1.043525 -1.197758 -1.372239 -1.542744 -1.654999 -1.750084 
-1.822684 -1.868690 -1.886677 -1.928133 -1.949797 -1.921430 
-1.845568 -1.734548 -1.606320 -1.482874 -1.367127 -1.256235 
-1.145356 -1.027031 -0.854270 -0.662220 -0.499204 -0.375014 
-0.297314 0.000000 0.000000 -0.248323 -0.234444 -0.275026 
-0.355329 -0.460999 -0.543354 -0.568363 -0.581355 -0.589215 
-0.598904 -0.617387 -0.720527 -0.867353 -1.044349 -1.247890 
-1.473079 -1.672824 -1.752910 -1.797687 -1.810173 -1.795020 
-1.759297 -1.819656 -1.891945 -1.911516 -1.871266 -1.778234 
-1.645799 -1.487757 -1.348373 -1.223343 -1.105843 -0.986491 
-0.811479 -0.603675 -0.416334 -0.270883 -0.190200 0.000000 
0.000000 -0.237423 -0.205607 -0.243735 -0.328121 -0.438295 
-0.518817 -0.533497 -0.532416 -0.525094 -0.521542 -0.532209 
-0.650544 -0.824817 -1.035960 -1.277386 -1.541297 -1.765541 
-1.827310 -1.838420 -1.807324 -1.744526 -1.663001 -1.730192 
-1.839764 -1.901567 -1.898286 -1.828725 -1.697007 -1.497790 
-1.325678 -1.177160 -1.044651 -0.917912 -0.755340 -0.555413 
-0.358572 -0.200125 -0.123911 0.000000 0.000000 -0.204371 
-0.207306 -0.257486 -0.337140 -0.432852 -0.501201 -0.515286 
-0.519177 -0.519491 -0.523348 -0.538433 -0.657256 -0.827881 
-1.032560 -1.266896 -1.526133 -1.749597 -1.808392 -1.814781 
-1.775102 -1.699182 -1.600988 -1.671240 -1.807392 -1.911005 
-1.955807 -1.926738 -1.805779 -1.544312 -1.301428 -1.088286 
-0.907765 -0.758790 -0.646101 -0.534196 -0.411008 -0.294584 
-0.217513 0.000000 0.000000 -0.157978 -0.234549 -0.305523 
-0.374547 -0.444901 -0.496540 -0.517093 -0.537610 -0.559545 
-0.584185 -0.612696 -0.721409 -0.867060 -1.038299 -1.235497 
-1.458864 -1.660668 -1.728214 -1.751619 -1.731376 -1.672409 
-1.585533 -1.649676 -1.790824 -1.921938 -2.013618 -2.038096 
-1.949048 -1.630314 -1.298007 -0.992650 -0.738004 -0.547954 
-0.490665 -0.506685 -0.518789 -0.502363 -0.439888 0.000000 
0.000000 -0.117385 -0.263812 -0.355104 -0.414671 -0.461762 
-0.499178 -0.527125 -0.563382 -0.605199 -0.649229 -0.691468 
-0.787905 -0.906558 -1.042164 -1.198366 -1.378371 -1.552468 
-1.640350 -1.696311 -1.714684 -1.693406 -1.637054 -1.676580 
-1.789010 -1.914826 -2.027534 -2.095059 -2.054149 -1.724705 
-1.326770 -0.935059 -0.602815 -0.364696 -0.340327 -0.456228 
-0.584668 -0.669864 -0.651969 0.000000 0.000000 -0.067512 
-0.280797 -0.398089 -0.455418 -0.486610 -0.514650 -0.549339 
-0.598883 -0.656526 -0.715085 -0.766893 -0.849754 -0.941597 
-1.041774 -1.155817 -1.288620 -1.432376 -1.551462 -1.655894 
-1.733643 -1.773116 -1.768603 -1.764050 -1.810969 -1.891846 
-1.985779 -2.064240 -2.069750 -1.804677 -1.395653 -0.942192 
-0.536115 -0.247126 -0.217687 -0.381189 -0.578932 -0.737402 
-0.780081 0.000000 0.000000 0.002054 -0.273048 -0.426552 
-0.495194 -0.523595 -0.548871 -0.587347 -0.645695 -0.712865 
-0.778289 -0.832026 -0.900827 -0.968018 -1.035295 -1.108853 
-1.194596 -1.309405 -1.470036 -1.638780 -1.797851 -1.924120 
-1.997090 -1.927714 -1.866675 -1.855454 -1.878367 -1.913625 
-1.936501 -1.832312 -1.506537 -1.048534 -0.584735 -0.238226 
-0.131118 -0.264987 -0.473745 -0.659648 -0.743046 0.000000 
0.000000 0.000000 0.000000 0.000000 0.000000 0.000000 
0.000000 0.000000 0.000000 0.000000 0.000000 0.000000 
0.000000 0.000000 0.000000 0.000000 0.000000 0.000000 
0.000000 0.000000 0.000000 0.000000 0.000000 0.000000 
0.000000 0.000000 0.000000 0.000000 0.000000 0.000000 
0.000000 0.000000 0.000000 0.000000 0.000000 0.000000 
0.000000 0.000000 0.000000 0.000000 
