# vtk DataFile Version 1.0
vtk output
ASCII
DATASET POLYDATA
POINTS 1600 float
-0.997037 0.008717 -0.992516 -0.899007 0.049029 -0.996701 
-0.805390 0.088467 -0.999241 -0.715829 0.126427 -1.000528 
-0.629967 0.162308 -1.000958 -0.547446 0.195506 -1.000922 
-0.467916 0.225430 -1.000809 -0.391196 0.251886 -1.000802 
-0.317313 0.275152 -1.000839 -0.246308 0.295538 -1.000844 
-0.178220 0.313352 -1.000742 -0.113088 0.328904 -1.000455 
-0.050928 0.342460 -0.999931 0.008405 0.354035 -0.999262 
0.065115 0.363545 -0.998597 0.119406 0.370907 -0.998085 
0.171482 0.376039 -0.997875 0.221546 0.378857 -0.998112 
0.269755 0.379344 -0.998827 0.316184 0.377592 -0.999840 
0.360901 0.373707 -1.000952 0.403971 0.367796 -1.001962 
0.445462 0.359962 -1.002672 0.485437 0.350309 -1.002900 
0.523947 0.338918 -1.002673 0.561031 0.325857 -1.002131 
0.596729 0.311195 -1.001415 0.631081 0.295000 -1.000669 
0.664127 0.277339 -1.000033 0.695963 0.258286 -0.999601 
0.726833 0.237923 -0.999338 0.757005 0.216333 -0.999188 
0.786749 0.193601 -0.999096 0.816331 0.169810 -0.999005 
0.846017 0.145037 -0.998870 0.876005 0.119209 -0.998808 
0.906443 0.092132 -0.999074 0.937475 0.063607 -0.999924 
0.969246 0.033436 -1.001617 1.001900 0.001420 -1.004410 
-1.001453 0.020899 -0.942506 -0.902964 0.062464 -0.943986 
-0.808278 0.103092 -0.945383 -0.717330 0.142268 -0.946612 
-0.630055 0.179477 -0.947591 -0.546391 0.214204 -0.948236 
-0.466270 0.245942 -0.948465 -0.389587 0.274460 -0.948297 
-0.316187 0.299852 -0.947871 -0.245912 0.322233 -0.947333 
-0.178605 0.341721 -0.946828 -0.114108 0.358430 -0.946503 
-0.052269 0.372475 -0.946474 0.007032 0.383971 -0.946689 
0.063901 0.393030 -0.947029 0.118446 0.399766 -0.947373 
0.170774 0.404290 -0.947604 0.220990 0.406717 -0.947602 
0.269201 0.407145 -0.947330 0.315506 0.405648 -0.946890 
0.360008 0.402298 -0.946399 0.402805 0.397166 -0.945974 
0.444000 0.390325 -0.945732 0.483691 0.381833 -0.945776 
0.521969 0.371636 -0.946067 0.558918 0.359616 -0.946488 
0.594621 0.345652 -0.946920 0.629164 0.329625 -0.947243 
0.662630 0.311414 -0.947340 0.695124 0.291017 -0.947157 
0.726805 0.268734 -0.946815 0.757841 0.244917 -0.946462 
0.788397 0.219916 -0.946245 0.818642 0.194081 -0.946314 
0.848741 0.167733 -0.946800 0.878824 0.140655 -0.947562 
0.908993 0.112187 -0.948231 0.939349 0.081658 -0.948433 
0.969993 0.048395 -0.947791 1.001026 0.011725 -0.945932 
-1.002930 0.032964 -0.891729 -0.904411 0.076585 -0.891692 
-0.809435 0.118558 -0.892351 -0.718047 0.158625 -0.893392 
-0.630294 0.196531 -0.894498 -0.546221 0.232019 -0.895354 
-0.465870 0.264836 -0.895652 -0.389167 0.294814 -0.895329 
-0.315900 0.321887 -0.894621 -0.245847 0.345997 -0.893784 
-0.178787 0.367085 -0.893070 -0.114499 0.385090 -0.892733 
-0.052776 0.399985 -0.892973 0.006494 0.411930 -0.893663 
0.063387 0.421158 -0.894545 0.117981 0.427901 -0.895366 
0.170351 0.432392 -0.895870 0.220574 0.434863 -0.895804 
0.268739 0.435480 -0.895092 0.314951 0.434293 -0.893972 
0.359320 0.431339 -0.892712 0.401955 0.426658 -0.891583 
0.442964 0.420288 -0.890852 0.482457 0.412252 -0.890758 
0.520550 0.402442 -0.891241 0.557363 0.390672 -0.892072 
0.593015 0.376758 -0.893018 0.627628 0.360513 -0.893848 
0.661321 0.341753 -0.894331 0.694208 0.320445 -0.894345 
0.726391 0.296964 -0.894055 0.757969 0.271751 -0.893675 
0.789040 0.245244 -0.893417 0.819702 0.217885 -0.893493 
0.850055 0.190072 -0.894092 0.880194 0.161543 -0.895001 
0.910208 0.131483 -0.895673 0.940191 0.099060 -0.895553 
0.970233 0.063443 -0.894082 1.000425 0.023801 -0.890705 
-1.002411 0.044778 -0.840318 -0.904152 0.090922 -0.839646 
-0.809433 0.134334 -0.839889 -0.718280 0.175106 -0.840674 
-0.630717 0.213329 -0.841630 -0.546770 0.249093 -0.842386 
-0.466462 0.282485 -0.842580 -0.389721 0.313466 -0.842129 
-0.316360 0.341840 -0.841291 -0.246189 0.367403 -0.840345 
-0.179015 0.389952 -0.839567 -0.114645 0.409283 -0.839235 
-0.052899 0.425244 -0.839568 0.006342 0.438003 -0.840415 
0.063170 0.447847 -0.841483 0.117676 0.455066 -0.842481 
0.169953 0.459950 -0.843118 0.220094 0.462786 -0.843104 
0.268193 0.463767 -0.842349 0.314349 0.462919 -0.841117 
0.358661 0.460251 -0.839706 0.401227 0.455771 -0.838417 
0.442147 0.449488 -0.837548 0.481522 0.441401 -0.837365 
0.519484 0.431402 -0.837815 0.556179 0.419326 -0.838661 
0.591755 0.405006 -0.839666 0.626359 0.388276 -0.840591 
0.660138 0.368970 -0.841199 0.693218 0.347063 -0.841354 
0.725665 0.322900 -0.841195 0.757539 0.296887 -0.840905 
0.788897 0.269430 -0.840663 0.819797 0.240935 -0.840653 
0.850297 0.211770 -0.841038 0.880481 0.181690 -0.841656 
0.910446 0.149940 -0.842081 0.940295 0.115746 -0.841878 
0.970127 0.078339 -0.840610 1.000042 0.036947 -0.837842 
-1.000837 0.056208 -0.788405 -0.902991 0.105002 -0.787679 
-0.808844 0.149891 -0.787738 -0.718324 0.191319 -0.788263 
-0.631358 0.229730 -0.788937 -0.547872 0.265568 -0.789439 
-0.467792 0.299266 -0.789459 -0.391030 0.330934 -0.788930 
-0.317474 0.360289 -0.788082 -0.247014 0.387023 -0.787163 
-0.179537 0.410832 -0.786420 -0.114933 0.431408 -0.786100 
-0.053087 0.448508 -0.786398 0.006127 0.462279 -0.787178 
0.062844 0.473016 -0.788179 0.117197 0.481015 -0.789139 
0.169320 0.486571 -0.789796 0.219345 0.489978 -0.789892 
0.267388 0.491427 -0.789339 0.313530 0.490923 -0.788357 
0.357851 0.488453 -0.787196 0.400429 0.484004 -0.786107 
0.441343 0.477564 -0.785340 0.480676 0.469114 -0.785119 
0.518567 0.458584 -0.785411 0.555179 0.445876 -0.786038 
0.590681 0.430889 -0.786821 0.625239 0.413524 -0.787579 
0.659018 0.393682 -0.788134 0.692155 0.371363 -0.788375 
0.724702 0.346828 -0.788372 0.756700 0.320378 -0.788227 
0.788189 0.292317 -0.788040 0.819209 0.262947 -0.787910 
0.849802 0.232543 -0.787931 0.880050 0.200913 -0.788059 
0.910062 0.167480 -0.788136 0.939953 0.131653 -0.788002 
0.969835 0.092842 -0.787496 0.999820 0.050457 -0.786458 
-0.999150 0.067121 -0.736125 -0.901731 0.118356 -0.735617 
-0.808239 0.164700 -0.735640 -0.718478 0.206872 -0.735967 
-0.632250 0.245594 -0.736370 -0.549358 0.281585 -0.736622 
-0.469607 0.315552 -0.736499 -0.392879 0.347736 -0.735964 
-0.319149 0.377814 -0.735195 -0.248396 0.405432 -0.734386 
-0.180602 0.430233 -0.733729 -0.115746 0.451863 -0.733417 
-0.053792 0.470031 -0.733603 0.005399 0.484850 -0.734186 
0.062007 0.496585 -0.734969 0.116211 0.505499 -0.735756 
0.168191 0.511860 -0.736350 0.218123 0.515931 -0.736555 
0.266147 0.517879 -0.736299 0.312324 0.517698 -0.735725 
0.356712 0.515365 -0.734998 0.399367 0.510858 -0.734283 
0.440344 0.504152 -0.733747 0.479707 0.495226 -0.733538 
0.517592 0.484056 -0.733648 0.554177 0.470621 -0.733981 
0.589638 0.454899 -0.734437 0.624154 0.436867 -0.734920 
0.657901 0.416504 -0.735330 0.691023 0.393839 -0.735597 
0.723577 0.369035 -0.735723 0.755601 0.342277 -0.735719 
0.787136 0.313749 -0.735600 0.818224 0.283636 -0.735377 
0.848908 0.252106 -0.735067 0.879266 0.219028 -0.734741 
0.909412 0.184026 -0.734519 0.939459 0.146715 -0.734520 
0.969518 0.106712 -0.734862 0.999702 0.063631 -0.735667 
-0.998276 0.077384 -0.683612 -0.901161 0.130522 -0.683296 
-0.808179 0.178240 -0.683346 -0.719033 0.221379 -0.683596 
-0.633427 0.260779 -0.683883 -0.551065 0.297281 -0.684040 
-0.471655 0.331710 -0.683908 -0.395053 0.364378 -0.683459 
-0.321291 0.394985 -0.682828 -0.250410 0.423191 -0.682157 
-0.182453 0.448656 -0.681591 -0.117463 0.471042 -0.681274 
-0.055455 0.490067 -0.681319 0.003718 0.505807 -0.681666 
0.060263 0.518473 -0.682185 0.114391 0.528277 -0.682746 
0.166310 0.535431 -0.683220 0.216229 0.540145 -0.683478 
0.264298 0.542552 -0.683464 0.310565 0.542649 -0.683252 
0.355071 0.540418 -0.682929 0.397852 0.535839 -0.682581 
0.438948 0.528896 -0.682295 0.478407 0.519574 -0.682150 
0.516360 0.507885 -0.682155 0.552987 0.493858 -0.682273 
0.588470 0.477522 -0.682472 0.622988 0.458908 -0.682718 
0.656724 0.438043 -0.682974 0.689826 0.414976 -0.683208 
0.722363 0.389805 -0.683381 0.754388 0.362636 -0.683457 
0.785957 0.333573 -0.683397 0.817124 0.302723 -0.683165 
0.847945 0.270181 -0.682731 0.878491 0.235855 -0.682224 
0.908847 0.199501 -0.681898 0.939099 0.160869 -0.682012 
0.969332 0.119710 -0.682825 0.999633 0.075775 -0.684596 
-0.998549 0.086939 -0.631029 -0.901587 0.141319 -0.630736 
-0.808886 0.190291 -0.630820 -0.720101 0.234640 -0.631125 
-0.634888 0.275150 -0.631490 -0.552900 0.312604 -0.631757 
-0.473800 0.347773 -0.631771 -0.397423 0.380972 -0.631493 
-0.323814 0.411973 -0.631031 -0.253031 0.440512 -0.630496 
-0.185133 0.466327 -0.630003 -0.120178 0.489155 -0.629666 
-0.058196 0.508777 -0.629577 0.000960 0.525237 -0.629708 
0.057506 0.538682 -0.629980 0.111655 0.549258 -0.630318 
0.163623 0.557111 -0.630642 0.213624 0.562387 -0.630878 
0.261809 0.565182 -0.630985 0.308218 0.565506 -0.630993 
0.352881 0.563360 -0.630937 0.395827 0.558745 -0.630853 
0.437087 0.551662 -0.630774 0.476698 0.542115 -0.630735 
0.514787 0.530130 -0.630744 0.551531 0.515746 -0.630794 
0.587108 0.499003 -0.630880 0.621695 0.479941 -0.630996 
0.655469 0.458600 -0.631135 0.688585 0.435030 -0.631285 
0.721128 0.409313 -0.631414 0.753175 0.381536 -0.631487 
0.784803 0.351783 -0.631470 0.816089 0.320143 -0.631327 
0.847108 0.286690 -0.631030 0.877912 0.251341 -0.630681 
0.908530 0.213878 -0.630484 0.938995 0.174077 -0.630645 
0.969335 0.131716 -0.631375 0.999581 0.086574 -0.632880 
-0.999596 0.095815 -0.578579 -0.902730 0.150907 -0.578180 
-0.810175 0.200996 -0.578292 -0.721579 0.246684 -0.578723 
-0.636593 0.288577 -0.579282 -0.554863 0.327277 -0.579780 
-0.476044 0.363381 -0.580028 -0.399960 0.397155 -0.579965 
-0.326638 0.428473 -0.579681 -0.256119 0.457186 -0.579273 
-0.188442 0.483143 -0.578841 -0.123649 0.506195 -0.578482 
-0.061753 0.526215 -0.578280 -0.002613 0.543227 -0.578231 
0.053977 0.557307 -0.578295 0.108217 0.568535 -0.578433 
0.160312 0.576989 -0.578605 0.210464 0.582747 -0.578773 
0.258816 0.585870 -0.578912 0.305403 0.586388 -0.579028 
0.350254 0.584327 -0.579125 0.393394 0.579716 -0.579211 
[...]
POINT_DATA 1600
SCALARS scalars float
LOOKUP_TABLE default
0.000000 0.000000 0.000000 0.000000 0.000000 0.000000 
0.000000 0.000000 0.000000 0.000000 0.000000 0.000000 
0.000000 0.000000 0.000000 0.000000 0.000000 0.000000 
0.000000 0.000000 0.000000 0.000000 0.000000 0.000000 
0.000000 0.000000 0.000000 0.000000 0.000000 0.000000 
0.000000 0.000000 0.000000 0.000000 0.000000 0.000000 
0.000000 0.000000 0.000000 0.000000 0.000000 -0.039878 
0.094237 0.051566 -0.127772 -0.414077 -0.721473 -0.945749 
-1.095520 -1.165668 -1.169600 -1.129097 -1.095268 -1.065427 
-1.031904 -0.990296 -0.938005 -0.867094 -0.773712 -0.701832 
-0.665259 -0.668570 -0.711538 -0.926010 -1.256781 -1.633219 
-2.026367 -2.393124 -2.613094 -2.342255 -1.954053 -1.519718 
-1.102535 -0.754458 -0.888282 -1.393590 -1.807813 -1.912283 
-1.553322 0.000000 0.000000 -0.184410 -0.054900 -0.046994 
-0.136017 -0.302957 -0.512031 -0.708510 -0.880773 -1.010776 
-1.090711 -1.123173 -1.110091 -1.086368 -1.059381 -1.030804 
-1.000972 -0.960684 -0.893334 -0.830281 -0.783772 -0.764597 
-0.783103 -1.046509 -1.450342 -1.878714 -2.278562 -2.587196 
-2.674106 -2.249438 -1.813017 -1.404833 -1.051246 -0.771760 
-0.989448 -1.492847 -1.810128 -1.826889 -1.502391 0.000000 
0.000000 -0.352239 -0.234797 -0.176768 -0.175613 -0.226046 
-0.334096 -0.486478 -0.651756 -0.811486 -0.949617 -1.055465 
-1.080315 -1.079737 -1.071884 -1.062710 -1.055295 -1.047618 
-1.029125 -1.008337 -0.993125 -0.994871 -1.028957 -1.290042 
-1.663854 -2.029948 -2.330968 -2.513798 -2.487348 -2.070479 
-1.692627 -1.369955 -1.109889 -0.915858 -1.102898 -1.441562 
-1.594848 -1.538497 -1.284366 0.000000 0.000000 -0.492464 
-0.417485 -0.323703 -0.236991 -0.174690 -0.184548 -0.285325 
-0.425140 -0.589141 -0.761691 -0.927665 -1.002231 -1.042060 
-1.068746 -1.089733 -1.109889 -1.137213 -1.178590 -1.219844 
-1.263431 -1.315904 -1.388420 -1.603493 -1.867444 -2.092726 
-2.239824 -2.282495 -2.181360 -1.862098 -1.595195 -1.381197 
-1.215158 -1.088013 -1.172875 -1.297367 -1.295742 -1.191689 
-1.011508 0.000000 0.000000 -0.571963 -0.574287 -0.469592 
-0.310997 -0.145657 -0.062948 -0.106886 -0.209931 -0.360302 
-0.545521 -0.751486 -0.879140 -0.972356 -1.048834 -1.114237 
-1.173604 -1.243027 -1.347592 -1.457190 -1.567995 -1.677508 
-1.784743 -1.921480 -2.033206 -2.086813 -2.073217 -1.995307 
-1.856759 -1.664401 -1.520342 -1.410044 -1.315584 -1.216259 
-1.174573 -1.113860 -1.002355 -0.885020 -0.799578 0.000000 
0.000000 -0.562168 -0.625154 -0.547470 -0.382928 -0.187330 
-0.064686 -0.071780 -0.140899 -0.263796 -0.432110 -0.636082 
-0.787556 -0.915063 -1.029505 -1.132737 -1.227449 -1.330226 
-1.473192 -1.623451 -1.773307 -1.913670 -2.034017 -2.106212 
-2.111376 -2.056989 -1.954186 -1.820897 -1.681358 -1.575049 
-1.497162 -1.427080 -1.344316 -1.229096 -1.107128 -0.971326 
-0.837414 -0.752681 -0.759304 0.000000 0.000000 -0.500657 
-0.568830 -0.537640 -0.438159 -0.304990 -0.215840 -0.220781 
-0.269188 -0.358280 -0.484910 -0.645042 -0.779703 -0.904954 
-1.026191 -1.142397 -1.253050 -1.367407 -1.509854 -1.658793 
-1.807528 -1.947354 -2.067519 -2.128459 -2.122554 -2.063593 
-1.963007 -1.836956 -1.707045 -1.601291 -1.500105 -1.393161 
-1.271804 -1.128522 -1.013054 -0.925147 -0.850531 -0.815827 
-0.841910 0.000000 0.000000 -0.432339 -0.498441 -0.510627 
-0.481539 -0.424890 -0.382258 -0.388479 -0.418039 -0.473203 
-0.555328 -0.664883 -0.778115 -0.897545 -1.022987 -1.151335 
-1.279390 -1.406094 -1.539910 -1.676648 -1.811257 -1.936827 
-2.044735 -2.111722 -2.125930 -2.092117 -2.016915 -1.911219 
-1.785518 -1.634940 -1.478788 -1.317863 -1.153610 -0.987107 
-0.914622 -0.914187 -0.919203 -0.933411 -0.954157 0.000000 
0.000000 -0.364944 -0.425653 -0.477524 -0.518015 -0.542554 
-0.554311 -0.566410 -0.579892 -0.601868 -0.638474 -0.695143 
-0.784381 -0.895130 -1.021690 -1.159242 -1.302248 -1.438777 
-1.559120 -1.677755 -1.792101 -1.898224 -1.991092 -2.076077 
-2.128091 -2.134886 -2.095030 -2.011849 -1.881254 -1.663057 
-1.440093 -1.223257 -1.021362 -0.841013 -0.827508 -0.924743 
-1.007564 -1.056476 -1.050375 0.000000 0.000000 -0.307393 
-0.360554 -0.448232 -0.553347 -0.655501 -0.723255 -0.745647 
-0.746387 -0.737373 -0.730230 -0.736564 -0.800645 -0.900009 
-1.023953 -1.165936 -1.318070 -1.459089 -1.564388 -1.663731 
-1.757845 -1.846671 -1.929562 -2.039081 -2.134087 -2.183830 
-2.177291 -2.109509 -1.963495 -1.676558 -1.391949 -1.128621 
-0.900880 -0.719852 -0.766215 -0.946284 -1.085123 -1.146427 
-1.102403 0.000000 0.000000 -0.270422 -0.311840 -0.431048 
-0.593533 -0.763043 -0.881093 -0.916356 -0.907822 -0.872231 
-0.827181 -0.791358 -0.829980 -0.914813 -1.031485 -1.171412 
-1.323921 -1.461730 -1.553615 -1.636832 -1.716154 -1.796049 
-1.880628 -2.015914 -2.147462 -2.230288 -2.244268 -2.177575 
-2.006721 -1.669641 -1.342200 -1.050065 -0.813293 -0.648619 
-0.743404 -0.969138 -1.126134 -1.174280 -1.091145 0.000000 
0.000000 -0.289717 -0.322096 -0.425604 -0.569617 -0.724726 
-0.839073 -0.881427 -0.889293 -0.874643 -0.850188 -0.829785 
-0.872205 -0.952582 -1.059637 -1.187322 -1.327323 -1.457856 
-1.555861 -1.650212 -1.744156 -1.840550 -1.941647 -2.079425 
-2.199628 -2.262665 -2.251887 -2.160608 -1.974990 -1.659447 
-1.364859 -1.110029 -0.909280 -0.773767 -0.848592 -1.001818 
-1.077753 -1.065404 -0.966465 0.000000 0.000000 -0.328445 
-0.350710 -0.426034 -0.533165 -0.652923 -0.749242 -0.799243 
-0.830486 -0.849085 -0.861459 -0.874891 -0.926783 -1.002272 
-1.095467 -1.203415 -1.321207 -1.438356 -1.549437 -1.665249 
-1.785699 -1.909736 -2.035136 -2.162235 -2.248529 -2.271128 
-2.221527 -2.101140 -1.911056 -1.655045 -1.423614 -1.227379 
-1.073085 -0.963918 -0.976782 -1.010729 -0.984117 -0.907319 
-0.793583 0.000000 0.000000 -0.371667 -0.384333 -0.428545 
-0.494573 -0.573979 -0.649379 -0.708716 -0.765102 -0.819311 
-0.872110 -0.924721 -0.986962 -1.056394 -1.133196 -1.217623 
-1.308671 -1.409455 -1.535281 -1.675310 -1.825482 -1.979981 
-2.131063 -2.241101 -2.285444 -2.262439 -2.172916 -2.026265 
-1.839200 -1.658467 -1.500394 -1.367476 -1.258312 -1.167780 
-1.098590 -1.001924 -0.875358 -0.739067 -0.607739 0.000000 
0.000000 -0.410218 -0.416477 -0.429898 -0.453927 -0.491970 
-0.546568 -0.616373 -0.698261 -0.787844 -0.880649 -0.972206 
-1.045306 -1.108788 -1.168943 -1.229732 -1.294785 -1.380399 
-1.519861 -1.682626 -1.860365 -2.042214 -2.214646 -2.305450 
-2.308791 -2.243633 -2.119790 -1.953751 -1.776469 -1.673101 
-1.587596 -1.513903 -1.442208 -1.359861 -1.204733 -0.986425 
-0.771365 -0.582896 -0.434872 0.000000 0.000000 -0.436078 
-0.440880 -0.427437 -0.412327 -0.411601 -0.447325 -0.527518 
-0.633960 -0.756720 -0.885790 -1.010698 -1.094316 -1.152928 
-1.198527 -1.239579 -1.285038 -1.360932 -1.510141 -1.690054 
-1.888078 -2.088578 -2.272785 -2.346173 -2.317498 -2.220913 
-2.073786 -1.898636 -1.737756 -1.702218 -1.678262 -1.651150 
-1.603707 -1.518259 -1.288898 -0.974000 -0.687923 -0.456978 
-0.299155 0.000000 0.000000 -0.434211 -0.445861 -0.424397 
-0.391642 -0.370217 -0.393717 -0.476392 -0.592601 -0.729374 
-0.873507 -1.011131 -1.102127 -1.163656 -1.209909 -1.251674 
-1.300139 -1.380717 -1.530628 -1.710964 -1.907918 -2.104530 
-2.280627 -2.341653 -2.300894 -2.195495 -2.045595 -1.876127 
-1.733998 -1.735423 -1.738403 -1.724386 -1.675481 -1.576139 
-1.307700 -0.950540 -0.633435 -0.385387 -0.232592 0.000000 
0.000000 -0.403438 -0.429251 -0.431325 -0.422629 -0.417491 
-0.441713 -0.508437 -0.598524 -0.704477 -0.818390 -0.931905 
-1.025921 -1.109521 -1.190515 -1.274422 -1.365876 -1.473560 
-1.611964 -1.766104 -1.927981 -2.086428 -2.227139 -2.280871 
-2.252976 -2.168012 -2.040470 -1.889911 -1.756501 -1.740606 
-1.712585 -1.661824 -1.580277 -1.462573 -1.207417 -0.885997 
-0.604822 -0.386481 -0.255310 0.000000 0.000000 -0.374650 
-0.412435 -0.436805 -0.453296 -0.468296 -0.495817 -0.544272 
-0.604562 -0.674897 -0.752940 -0.835913 -0.933950 -1.043009 
-1.163201 -1.294913 -1.436574 -1.577579 -1.703423 -1.829230 
-1.952534 -2.067878 -2.166960 -2.215314 -2.206107 -2.147603 
-2.047767 -1.919530 -1.792224 -1.739119 -1.665754 -1.570575 
-1.454257 -1.318768 -1.094573 -0.831121 -0.602023 -0.425187 
-0.321787 0.000000 0.000000 -0.349504 -0.397517 -0.442021 
-0.482425 -0.517987 -0.549650 -0.579121 -0.608339 -0.641438 
-0.682187 -0.733968 -0.837135 -0.972345 -1.131475 -1.310064 
-1.501208 -1.676787 -1.793990 -1.895278 -1.982897 -2.056782 
-2.114697 -2.156536 -2.164618 -2.131462 -2.058393 -1.951358 
-1.827194 -1.727343 -1.603135 -1.462219 -1.312412 -1.160569 
-0.976911 -0.783806 -0.616538 -0.488083 -0.414160 0.000000 
0.000000 -0.329742 -0.386437 -0.448292 -0.509289 -0.562383 
-0.596776 -0.607884 -0.607385 -0.605230 -0.611657 -0.636907 
-0.745801 -0.905156 -1.098802 -1.317518 -1.549922 -1.755887 
-1.872390 -1.958424 -2.019379 -2.059761 -2.083292 -2.114949 
-2.132591 -2.117246 -2.064268 -1.973436 -1.850009 -1.703960 
-1.531099 -1.347651 -1.167367 -1.000756 -0.861003 -0.742752 
-0.641285 -0.563489 -0.517684 0.000000 0.000000 -0.317105 
-0.380884 -0.456845 -0.533374 -0.597631 -0.630794 -0.625260 
-0.599142 -0.567630 -0.547253 -0.555552 -0.669662 -0.848428 
-1.068593 -1.315733 -1.574289 -1.800538 -1.927002 -2.011734 
-2.060966 -2.082147 -2.084272 -2.099791 -2.113495 -2.102715 
-2.058268 -1.975655 -1.851669 -1.669306 -1.456500 -1.236974 
-1.030051 -0.850146 -0.752671 -0.707035 -0.670060 -0.641257 
-0.620574 0.000000 0.000000 -0.350352 -0.412290 -0.479065 
-0.542344 -0.593534 -0.621288 -0.622966 -0.611053 -0.596414 
-0.591337 -0.609651 -0.713813 -0.869903 -1.059834 -1.273338 
-1.500289 -1.713458 -1.867014 -1.990568 -2.080859 -2.136692 
-2.160492 -2.159154 -2.143668 -2.107200 -2.045080 -1.955871 
-1.835335 -1.647449 -1.426817 -1.198711 -0.984734 -0.801725 
-0.740726 -0.750973 -0.756784 -0.751067 -0.727607 0.000000 
0.000000 -0.398611 -0.455266 -0.504012 -0.543779 -0.573662 
-0.595922 -0.615796 -0.634511 -0.656164 -0.685450 -0.728084 
-0.813659 -0.926771 -1.060872 -1.213217 -1.381455 -1.563233 
-1.749783 -1.928131 -2.084099 -2.203051 -2.273021 -2.251777 
-2.191748 -2.114597 -2.023647 -1.922018 -1.807107 -1.632466 
-1.421560 -1.199099 -0.988014 -0.807296 -0.774796 -0.825646 
-0.859117 -0.862193 -0.823707 0.000000 0.000000 -0.440647 
-0.493075 -0.524961 -0.542810 -0.553335 -0.572434 -0.612227 
-0.662114 -0.720371 -0.785009 -0.854130 -0.919304 -0.987069 
-1.063341 -1.152757 -1.259876 -1.407179 -1.625275 -1.856685 
-2.078596 -2.263475 -2.383349 -2.341773 -2.236372 -2.118845 
-1.999429 -1.884437 -1.773466 -1.618323 -1.423536 -1.212406 
-1.008526 -0.832667 -0.818505 -0.894692 -0.945041 -0.951529 
-0.898349 0.000000 0.000000 -0.471505 -0.521868 -0.540100 
-0.540150 -0.536347 -0.556362 -0.616500 -0.695958 -0.787644 
-0.883655 -0.975351 -1.020465 -1.045155 -1.066950 -1.097830 
-1.149232 -1.265342 -1.509311 -1.785384 -2.063564 -2.305464 
-2.469170 -2.413672 -2.273039 -2.123269 -1.980011 -1.852001 
-1.741665 -1.606990 -1.432056 -1.237366 -1.045491 -0.877500 
-0.869106 -0.952085 -1.006820 -1.011593 -0.946090 0.000000 
0.000000 -0.486959 -0.537856 -0.547685 -0.536786 -0.526607 
-0.552619 -0.631728 -0.736965 -0.855794 -0.974845 -1.079723 
-1.107400 -1.096262 -1.072610 -1.055386 -1.063372 -1.156405 
-1.415713 -1.721564 -2.037226 -2.316786 -2.510214 -2.454577 
-2.298590 -2.130766 -1.971187 -1.831409 -1.717605 -1.600385 
-1.446808 -1.273005 -1.098197 -0.941368 -0.923938 -0.992333 
-1.037550 -1.035141 -0.959873 0.000000 0.000000 -0.476560 
-0.526314 -0.535994 -0.527703 -0.525673 -0.563756 -0.654521 
-0.773204 -0.903307 -1.028134 -1.130653 -1.149963 -1.123949 
-1.080757 -1.042971 -1.034719 -1.119369 -1.374124 -1.680605 
-1.997701 -2.278591 -2.475526 -2.438588 -2.296627 -2.132081 
-1.968069 -1.820045 -1.699267 -1.594163 -1.462453 -1.314043 
-1.161401 -1.017207 -0.968846 -0.991881 -1.007053 -0.989924 
-0.911833 0.000000 0.000000 -0.410210 -0.435605 -0.455749 
-0.479906 -0.517165 -0.573774 -0.648050 -0.735925 -0.828861 
-0.918644 -0.997622 -1.039046 -1.062218 -1.081229 -1.108146 
-1.156898 -1.265026 -1.475666 -1.714855 -1.953411 -2.160631 
-2.307486 -2.298913 -2.204771 -2.074327 -1.926993 -1.780682 
-1.653067 -1.555137 -1.447054 -1.330197 -1.204430 -1.067572 
-0.949742 -0.869875 -0.810108 -0.759623 -0.700898 0.000000 
0.000000 -0.340112 -0.343406 -0.373752 -0.429310 -0.505917 
-0.580389 -0.634650 -0.688875 -0.742397 -0.794587 -0.845195 
-0.911650 -0.988163 -1.075805 -1.178150 -1.299367 -1.441884 
-1.597666 -1.757337 -1.905577 -2.027959 -2.112705 -2.141220 
-2.110889 -2.027236 -1.904183 -1.761795 -1.623989 -1.521300 
-1.427182 -1.335058 -1.234596 -1.111787 -0.936977 -0.759158 
-0.620546 -0.523529 -0.461324 0.000000 0.000000 -0.272233 
-0.256460 -0.296246 -0.378950 -0.489517 -0.578734 -0.612797 
-0.634395 -0.650032 -0.665987 -0.688420 -0.780026 -0.908265 
-1.062848 -1.241040 -1.438861 -1.621735 -1.723618 -1.804547 
-1.863012 -1.898956 -1.914482 -1.977275 -2.016087 -1.987908 
-1.897367 -1.764000 -1.615914 -1.495628 -1.402447 -1.322745 
-1.239469 -1.131822 -0.923426 -0.667991 -0.453619 -0.303000 
-0.229261 0.000000 0.000000 -0.215285 -0.181752 -0.228820 
-0.331994 -0.466917 -0.565146 -0.581291 -0.574593 -0.557332 
-0.541938 -0.540742 -0.655106 -0.828954 -1.042212 -1.287350 
-1.554467 -1.777525 -1.836910 -1.851786 -1.832138 -1.789053 
-1.734770 -1.820053 -1.922226 -1.952693 -1.902804 -1.786769 
-1.631867 -1.479959 -1.372054 -1.288690 -1.209058 -1.110433 
-0.897821 -0.600395 -0.323411 -0.120090 -0.040999 0.000000 
0.000000 -0.180852 -0.126601 -0.176407 -0.291394 -0.437873 
-0.536757 -0.538854 -0.510858 -0.468974 -0.430696 -0.414543 
-0.546718 -0.756223 -1.014597 -1.309799 -1.627905 -1.883598 
-1.920338 -1.892154 -1.816126 -1.710561 -1.594723 -1.684518 
-1.832634 -1.917352 -1.915003 -1.828520 -1.675187 -1.475510 
-1.334000 -1.227754 -1.133859 -1.030254 -0.844038 -0.554606 
-0.242728 0.001156 0.069687 0.000000 0.000000 -0.163753 
-0.157376 -0.222100 -0.328311 -0.452311 -0.533284 -0.537357 
-0.521573 -0.496737 -0.474920 -0.469730 -0.601608 -0.802935 
-1.048078 -1.328502 -1.635460 -1.889244 -1.928263 -1.900085 
-1.817420 -1.696922 -1.559107 -1.649406 -1.831411 -1.975524 
-2.044367 -2.017359 -1.875077 -1.571411 -1.316352 -1.107267 
-0.936310 -0.797075 -0.706534 -0.583598 -0.403154 -0.220428 
-0.129278 0.000000 0.000000 -0.163641 -0.253670 -0.338597 
-0.421170 -0.501828 -0.555712 -0.572808 -0.589336 -0.607432 
-0.628714 -0.654593 -0.773543 -0.935891 -1.128158 -1.350274 
-1.601937 -1.825174 -1.883884 -1.886588 -1.836127 -1.741878 
-1.620536 -1.702516 -1.893144 -2.081898 -2.227715 -2.287584 
-2.188617 -1.763399 -1.342211 -0.973046 -0.679077 -0.473984 
-0.494584 -0.621047 -0.705732 -0.705124 -0.595504 0.000000 
0.000000 -0.167438 -0.351906 -0.458417 -0.518734 -0.557696 
-0.587401 -0.618379 -0.664787 -0.721754 -0.782815 -0.839881 
-0.944132 -1.065968 -1.203480 -1.363071 -1.550159 -1.734131 
-1.824978 -1.876361 -1.880717 -1.837097 -1.754279 -1.805460 
-1.963704 -2.155230 -2.344909 -2.483472 -2.462731 -1.981859 
-1.419201 -0.888681 -0.462877 -0.185454 -0.289743 -0.616573 
-0.926320 -1.114513 -1.060490 0.000000 0.000000 -0.155714 
-0.435794 -0.574814 -0.623282 -0.630325 -0.642433 -0.685233 
-0.755958 -0.842744 -0.932556 -1.011050 -1.099800 -1.184395 
-1.271038 -1.370167 -1.490973 -1.632905 -1.764911 -1.881068 
-1.962911 -1.995212 -1.973193 -1.970473 -2.053375 -2.197321 
-2.374945 -2.544699 -2.605115 -2.194507 -1.576984 -0.914558 
-0.352429 0.003779 -0.126337 -0.557747 -0.989804 -1.308197 
-1.376762 0.000000 0.000000 -0.121865 -0.494956 -0.682174 
-0.738288 -0.732575 -0.736253 -0.784022 -0.869033 -0.971525 
-1.072558 -1.154385 -1.226655 -1.280793 -1.325889 -1.373610 
-1.435427 -1.540210 -1.719049 -1.912858 -2.093606 -2.229425 
-2.296302 -2.217536 -2.175864 -2.211849 -2.301685 -2.414737 
-2.503604 -2.328795 -1.829881 -1.132070 -0.442742 0.025036 
0.006423 -0.391945 -0.834252 -1.193441 -1.369856 0.000000 
0.000000 0.000000 0.000000 0.000000 0.000000 0.000000 
0.000000 0.000000 0.000000 0.000000 0.000000 0.000000 
0.000000 0.000000 0.000000 0.000000 0.000000 0.000000 
0.000000 0.000000 0.000000 0.000000 0.000000 0.000000 
0.000000 0.000000 0.000000 0.000000 0.000000 0.000000 
0.000000 0.000000 0.000000 0.000000 0.000000 0.000000 
0.000000 0.000000 0.000000 0.000000 
