# vtk DataFile Version 1.0
vtk output
ASCII
DATASET POLYDATA
POINTS 1600 float
-0.998150 0.006179 -0.996705 -0.900340 0.049641 -0.997301 
-0.806326 0.090128 -0.997836 -0.715998 0.127695 -0.998313 
-0.629247 0.162398 -0.998734 -0.545965 0.194291 -0.999103 
-0.466042 0.223429 -0.999422 -0.389371 0.249868 -0.999695 
-0.315842 0.273662 -0.999924 -0.245346 0.294866 -1.000113 
-0.177775 0.313536 -1.000265 -0.113020 0.329726 -1.000382 
-0.050972 0.343492 -1.000467 0.008478 0.354888 -1.000524 
0.065439 0.363970 -1.000555 0.120019 0.370792 -1.000564 
0.172327 0.375409 -1.000553 0.222472 0.377877 -1.000525 
0.270563 0.378250 -1.000484 0.316709 0.376584 -1.000432 
0.361019 0.372933 -1.000373 0.403600 0.367353 -1.000309 
0.444563 0.359898 -1.000243 0.484015 0.350623 -1.000178 
0.522067 0.339584 -1.000118 0.558826 0.326836 -1.000065 
0.594401 0.312433 -1.000023 0.628901 0.296430 -0.999993 
0.662435 0.278883 -0.999980 0.695112 0.259847 -0.999986 
0.727041 0.239376 -1.000014 0.758330 0.217525 -1.000068 
0.789088 0.194350 -1.000149 0.819424 0.169906 -1.000262 
0.849447 0.144247 -1.000409 0.879266 0.117428 -1.000593 
0.908989 0.089505 -1.000817 0.938725 0.060533 -1.001084 
0.968583 0.030566 -1.001398 0.998672 -0.000340 -1.001760 
-0.998640 0.019806 -0.943619 -0.900787 0.064676 -0.944105 
-0.806735 0.106539 -0.944541 -0.716375 0.145447 -0.944930 
-0.629598 0.181450 -0.945274 -0.546296 0.214602 -0.945575 
-0.466358 0.244953 -0.945837 -0.389675 0.272556 -0.946061 
-0.316138 0.297461 -0.946249 -0.245638 0.319722 -0.946405 
-0.178066 0.339390 -0.946530 -0.113312 0.356516 -0.946627 
-0.051266 0.371153 -0.946699 0.008179 0.383351 -0.946747 
0.065134 0.393164 -0.946774 0.119707 0.400642 -0.946782 
0.172009 0.405837 -0.946774 0.222148 0.408801 -0.946753 
0.270234 0.409587 -0.946720 0.316375 0.408245 -0.946678 
0.360681 0.404827 -0.946629 0.403262 0.399386 -0.946577 
0.444226 0.391973 -0.946522 0.483683 0.382639 -0.946468 
0.521743 0.371437 -0.946416 0.558513 0.358418 -0.946371 
0.594104 0.343634 -0.946332 0.628625 0.327137 -0.946304 
0.662186 0.308979 -0.946288 0.694894 0.289211 -0.946288 
0.726861 0.267885 -0.946304 0.758194 0.245053 -0.946340 
0.789003 0.220766 -0.946398 0.819398 0.195077 -0.946480 
0.849488 0.168037 -0.946590 0.879381 0.139698 -0.946728 
0.909188 0.110112 -0.946898 0.939017 0.079330 -0.947102 
0.968978 0.047405 -0.947342 0.999180 0.014388 -0.947621 
-0.999091 0.032776 -0.890853 -0.901279 0.078969 -0.891237 
-0.807266 0.122125 -0.891583 -0.716943 0.162293 -0.891892 
-0.630201 0.199522 -0.892165 -0.546929 0.233859 -0.892406 
-0.467020 0.265355 -0.892615 -0.390363 0.294057 -0.892794 
-0.316849 0.320014 -0.892946 -0.246369 0.343275 -0.893072 
-0.178813 0.363888 -0.893174 -0.114073 0.381902 -0.893253 
-0.052038 0.397365 -0.893312 0.007400 0.410326 -0.893353 
0.064351 0.420834 -0.893377 0.118924 0.428937 -0.893386 
0.171229 0.434684 -0.893382 0.221374 0.438123 -0.893367 
0.269470 0.439304 -0.893343 0.315626 0.438274 -0.893311 
0.359950 0.435082 -0.893273 0.402552 0.429778 -0.893231 
0.443542 0.422409 -0.893188 0.483029 0.413023 -0.893144 
0.521123 0.401671 -0.893102 0.557931 0.388400 -0.893063 
0.593565 0.373259 -0.893030 0.628133 0.356296 -0.893004 
0.661744 0.337560 -0.892987 0.694509 0.317100 -0.892980 
0.726536 0.294965 -0.892987 0.757934 0.271202 -0.893007 
0.788813 0.245861 -0.893045 0.819283 0.218990 -0.893100 
0.849452 0.190638 -0.893175 0.879430 0.160853 -0.893273 
0.909326 0.129684 -0.893394 0.939250 0.097180 -0.893540 
0.969311 0.063388 -0.893714 0.999618 0.028359 -0.893917 
-0.999502 0.045084 -0.838388 -0.901811 0.092516 -0.838680 
-0.807908 0.136884 -0.838943 -0.717684 0.178236 -0.839179 
-0.631031 0.216616 -0.839389 -0.547839 0.252070 -0.839574 
-0.467999 0.284644 -0.839736 -0.391403 0.314383 -0.839876 
-0.317940 0.341332 -0.839994 -0.247502 0.365538 -0.840094 
-0.179980 0.387045 -0.840175 -0.115266 0.405899 -0.840239 
-0.053248 0.422146 -0.840288 0.006180 0.435831 -0.840323 
0.063129 0.447000 -0.840345 0.117707 0.455698 -0.840355 
0.170024 0.461971 -0.840356 0.220188 0.465864 -0.840347 
0.268309 0.467423 -0.840331 0.314496 0.466693 -0.840309 
0.358857 0.463720 -0.840282 0.401503 0.458550 -0.840252 
0.442541 0.451227 -0.840219 0.482081 0.441798 -0.840186 
0.520232 0.430307 -0.840153 0.557103 0.416801 -0.840122 
0.592804 0.401325 -0.840094 0.627442 0.383924 -0.840070 
0.661128 0.364645 -0.840053 0.693971 0.343532 -0.840042 
0.726078 0.320631 -0.840040 0.757561 0.295987 -0.840048 
0.788527 0.269646 -0.840067 0.819085 0.241655 -0.840099 
0.849345 0.212057 -0.840144 0.879416 0.180899 -0.840204 
0.909407 0.148226 -0.840281 0.939427 0.114083 -0.840376 
0.969585 0.078517 -0.840490 0.999990 0.041573 -0.840624 
-0.999877 0.056726 -0.786206 -0.902378 0.105315 -0.786415 
-0.808649 0.150818 -0.786604 -0.718582 0.193279 -0.786775 
-0.632069 0.232739 -0.786927 -0.549000 0.269242 -0.787062 
-0.469267 0.302829 -0.787182 -0.392762 0.333544 -0.787286 
-0.319376 0.361428 -0.787375 -0.249001 0.386525 -0.787451 
-0.181529 0.408877 -0.787514 -0.116850 0.428526 -0.787565 
-0.054856 0.445515 -0.787606 0.004560 0.459886 -0.787636 
0.061508 0.471682 -0.787657 0.116097 0.480946 -0.787669 
0.168434 0.487719 -0.787674 0.218628 0.492045 -0.787673 
0.266787 0.493966 -0.787665 0.313021 0.493524 -0.787653 
0.357437 0.490763 -0.787637 0.400144 0.485723 -0.787617 
0.441250 0.478449 -0.787596 0.480865 0.468983 -0.787573 
0.519096 0.457366 -0.787549 0.556052 0.443642 -0.787525 
0.591841 0.427853 -0.787503 0.626572 0.410041 -0.787483 
0.660354 0.390250 -0.787466 0.693294 0.368521 -0.787453 
0.725501 0.344897 -0.787444 0.757085 0.319421 -0.787441 
0.788153 0.292135 -0.787444 0.818813 0.263081 -0.787454 
0.849175 0.232303 -0.787473 0.879346 0.199843 -0.787500 
0.909436 0.165742 -0.787538 0.939552 0.130045 -0.787586 
0.969804 0.092792 -0.787646 1.000299 0.054027 -0.787718 
-1.000214 0.067696 -0.734290 -0.902974 0.117364 -0.734424 
-0.809478 0.163926 -0.734547 -0.719620 0.207424 -0.734658 
-0.633291 0.247895 -0.734760 -0.550385 0.285380 -0.734851 
-0.470793 0.319919 -0.734932 -0.394409 0.351551 -0.735004 
-0.321123 0.380315 -0.735068 -0.250830 0.406251 -0.735123 
-0.183420 0.429399 -0.735171 -0.118787 0.449798 -0.735211 
-0.056823 0.467488 -0.735244 0.002580 0.482509 -0.735271 
0.059529 0.494900 -0.735292 0.114132 0.504700 -0.735307 
0.166496 0.511949 -0.735317 0.216730 0.516688 -0.735323 
0.264940 0.518954 -0.735324 0.311235 0.518789 -0.735321 
0.355721 0.516231 -0.735316 0.398508 0.511320 -0.735307 
0.439701 0.504097 -0.735296 0.479409 0.494599 -0.735283 
0.517739 0.482867 -0.735268 0.554800 0.468941 -0.735253 
0.590698 0.452860 -0.735237 0.625541 0.434664 -0.735220 
0.659437 0.414392 -0.735204 0.692493 0.392084 -0.735189 
0.724817 0.367779 -0.735175 0.756517 0.341517 -0.735163 
0.787700 0.313338 -0.735152 0.818474 0.283281 -0.735145 
0.848947 0.251386 -0.735140 0.879225 0.217692 -0.735138 
0.909417 0.182239 -0.735141 0.939630 0.145066 -0.735148 
0.969973 0.106214 -0.735160 1.000551 0.065722 -0.735177 
-1.000517 0.077989 -0.682622 -0.903593 0.128660 -0.682689 
-0.810383 0.176209 -0.682753 -0.720780 0.220674 -0.682812 
-0.634678 0.262089 -0.682868 -0.551970 0.300494 -0.682920 
-0.472549 0.335923 -0.682968 -0.396310 0.368414 -0.683012 
-0.323146 0.398004 -0.683053 -0.252950 0.424729 -0.683091 
-0.185616 0.448627 -0.683125 -0.121038 0.469733 -0.683156 
-0.059108 0.488084 -0.683184 0.000279 0.503718 -0.683208 
0.057230 0.516671 -0.683230 0.111852 0.526980 -0.683248 
0.164251 0.534682 -0.683264 0.214533 0.539812 -0.683276 
0.262805 0.542409 -0.683286 0.309173 0.542508 -0.683293 
0.353744 0.540147 -0.683298 0.396625 0.535362 -0.683300 
0.437921 0.528190 -0.683299 0.477740 0.518668 -0.683296 
0.516187 0.506832 -0.683290 0.553370 0.492720 -0.683283 
0.589394 0.476367 -0.683273 0.624367 0.457811 -0.683261 
0.658394 0.437089 -0.683247 0.691582 0.414237 -0.683231 
0.724038 0.389291 -0.683213 0.755868 0.362289 -0.683193 
0.787178 0.333268 -0.683171 0.818075 0.302263 -0.683148 
0.848666 0.269313 -0.683123 0.879057 0.234453 -0.683096 
0.909354 0.197720 -0.683068 0.939665 0.159152 -0.683039 
0.970094 0.118784 -0.683008 1.000750 0.076654 -0.682976 
-1.000786 0.087601 -0.631184 -0.904231 0.139202 -0.631193 
-0.811353 0.187668 -0.631204 -0.722046 0.233031 -0.631217 
-0.636206 0.275327 -0.631233 -0.553727 0.314588 -0.631250 
-0.474505 0.350850 -0.631269 -0.398435 0.384145 -0.631290 
-0.325410 0.414509 -0.631312 -0.255327 0.441974 -0.631334 
-0.188079 0.466575 -0.631357 -0.123563 0.488346 -0.631381 
-0.061672 0.507321 -0.631404 -0.002302 0.523533 -0.631427 
0.054652 0.537017 -0.631450 0.109296 0.547807 -0.631472 
0.161735 0.555937 -0.631493 0.212073 0.561441 -0.631513 
0.260417 0.564352 -0.631531 0.306870 0.564704 -0.631548 
0.351538 0.562533 -0.631562 0.394527 0.557870 -0.631574 
0.435941 0.550752 -0.631584 0.475885 0.541211 -0.631590 
0.514465 0.529281 -0.631594 0.551785 0.514997 -0.631594 
0.587951 0.498393 -0.631591 0.623069 0.479502 -0.631583 
0.657241 0.458358 -0.631571 0.690575 0.434996 -0.631555 
0.723176 0.409449 -0.631535 0.755147 0.381751 -0.631509 
0.786595 0.351937 -0.631478 0.817624 0.320040 -0.631441 
0.848340 0.286094 -0.631399 0.878848 0.250133 -0.631351 
0.909253 0.212192 -0.631296 0.939659 0.172304 -0.631235 
0.970173 0.130503 -0.631167 1.000898 0.086823 -0.631092 
-1.001023 0.096525 -0.579959 -0.904881 0.148987 -0.579916 
-0.812375 0.198301 -0.579881 -0.723401 0.244499 -0.579854 
-0.637854 0.287612 -0.579835 -0.555633 0.327671 -0.579823 
-0.476632 0.364708 -0.579817 -0.400749 0.398755 -0.579817 
-0.327881 0.429841 -0.579823 -0.257922 0.457999 -0.579832 
-0.190771 0.483260 -0.579847 -0.126323 0.505655 -0.579864 
-0.064475 0.525215 -0.579885 -0.005124 0.541972 -0.579908 
0.051835 0.555957 -0.579932 0.106504 0.567202 -0.579958 
0.158988 0.575737 -0.579985 0.209390 0.581594 -0.580012 
0.257813 0.584804 -0.580039 0.304361 0.585398 -0.580064 
0.349137 0.583409 -0.580088 0.392245 0.578867 -0.580110 
[...]
POINT_DATA 1600
SCALARS scalars float
LOOKUP_TABLE default
0.000000 0.000000 0.000000 0.000000 0.000000 0.000000 
0.000000 0.000000 0.000000 0.000000 0.000000 0.000000 
0.000000 0.000000 0.000000 0.000000 0.000000 0.000000 
0.000000 0.000000 0.000000 0.000000 0.000000 0.000000 
0.000000 0.000000 0.000000 0.000000 0.000000 0.000000 
0.000000 0.000000 0.000000 0.000000 0.000000 0.000000 
0.000000 0.000000 0.000000 0.000000 0.000000 -0.021812 
-0.019306 -0.015939 -0.011564 -0.006018 0.000885 0.009347 
0.019590 0.031850 0.046367 0.063375 0.083082 0.105641 
0.131112 0.159417 0.190280 0.223166 0.257221 0.291232 
0.323619 0.352478 0.375702 0.391168 0.396991 0.391790 
0.374921 0.346610 0.307951 0.260753 0.207288 0.149977 
0.091105 0.032600 -0.024089 -0.078026 -0.128743 -0.176161 
-0.220478 0.000000 0.000000 -0.019204 -0.016436 -0.012793 
-0.008120 -0.002243 0.005038 0.013947 0.024733 0.037662 
0.053014 0.071070 0.092088 0.116274 0.143738 0.174440 
0.208121 0.244223 0.281821 0.319565 0.355668 0.387961 
0.414042 0.431511 0.438287 0.432927 0.414898 0.384704 
0.343841 0.294567 0.239566 0.181572 0.123051 0.065984 
0.011766 -0.038783 -0.085345 -0.127988 -0.167043 0.000000 
0.000000 -0.016735 -0.013699 -0.009769 -0.004784 0.001443 
0.009126 0.018510 0.029868 0.043500 0.059724 0.078867 
0.101238 0.127098 0.156608 0.189768 0.226334 0.265728 
0.306944 0.348480 0.388325 0.424018 0.452834 0.472078 
0.479461 0.473495 0.453790 0.421169 0.377562 0.325691 
0.268643 0.209435 0.150671 0.094342 0.041758 -0.006397 
-0.049959 -0.089136 -0.124379 0.000000 0.000000 -0.014367 
-0.011060 -0.006836 -0.001528 0.005064 0.013168 0.023049 
0.035004 0.049365 0.066489 0.086748 0.110503 0.138069 
0.169660 0.205315 0.244808 0.287532 0.332397 0.377739 
0.421299 0.460305 0.491685 0.512432 0.520056 0.513043 
0.491181 0.455657 0.408867 0.354006 0.294549 0.233762 
0.174350 0.118275 0.066740 0.020279 -0.021093 -0.057720 
-0.090157 0.000000 0.000000 -0.012072 -0.008491 -0.003970 
0.001671 0.008639 0.017178 0.027572 0.040142 0.055252 
0.073297 0.094692 0.119849 0.149138 0.182824 0.220987 
0.263413 0.309469 0.357969 0.407077 0.454271 0.496447 
0.530171 0.552117 0.559604 0.551121 0.526677 0.487860 
0.437559 0.379444 0.317357 0.254778 0.194470 0.138341 
0.087463 0.042217 0.002472 -0.032241 -0.062571 0.000000 
0.000000 -0.009823 -0.005970 -0.001148 0.004830 0.012181 
0.021166 0.032085 0.045284 0.061155 0.080131 0.102671 
0.129236 0.160247 0.196021 0.236676 0.282009 0.331354 
0.383425 0.436202 0.486891 0.532039 0.567843 0.590659 
0.597634 0.587294 0.559911 0.517510 0.463489 0.401985 
0.337177 0.272720 0.211401 0.155042 0.104576 0.060228 
0.021724 -0.011516 -0.040223 0.000000 0.000000 -0.007601 
-0.003478 0.001646 0.007963 0.015703 0.025138 0.036588 
0.050422 0.067061 0.086971 0.110653 0.138616 0.171332 
0.209163 0.252264 0.300440 0.352986 0.408512 0.464806 
0.518790 0.566658 0.604238 0.627580 0.633683 0.621148 
0.590551 0.544380 0.486549 0.421641 0.354137 0.287825 
0.225482 0.168824 0.118633 0.074981 0.037460 0.005390 
-0.022032 0.000000 0.000000 -0.005392 -0.001000 0.004422 
0.011078 0.019208 0.029096 0.041080 0.055549 0.072952 
0.093789 0.118600 0.147937 0.182319 0.222152 0.267622 
0.318538 0.374151 0.432962 0.492560 0.549582 0.599871 
0.638890 0.662407 0.667305 0.652300 0.618303 0.568286 
0.506669 0.438451 0.368376 0.300322 0.237024 0.180074 
0.130100 0.087025 0.050321 0.019213 -0.007161 0.000000 
0.000000 -0.003182 0.001471 0.007190 0.014182 0.022698 
0.033037 0.045550 0.060650 0.078807 0.100555 0.126467 
0.157138 0.193128 0.234883 0.282613 0.336125 0.394625 
0.456495 0.519129 0.578879 0.631242 0.671340 0.694686 
0.698084 0.680402 0.642917 0.589085 0.523812 0.452479 
0.380040 0.310426 0.246302 0.189124 0.139366 0.096811 
0.060817 0.030531 0.005040 0.000000 0.000000 -0.000966 
0.003943 0.009950 0.017273 0.026171 0.036953 0.049988 
0.065704 0.084599 0.107229 0.134204 0.166153 0.203673 
0.247243 0.297091 0.353018 0.414176 0.478830 0.544177 
0.606293 0.660350 0.701152 0.723993 0.725643 0.705155 
0.664186 0.606673 0.537975 0.463801 0.389274 0.318337 
0.253561 0.196259 0.146756 0.104703 0.069359 0.039802 
0.015080 0.000000 0.000000 0.001259 0.006415 0.012703 
0.020348 0.029617 0.040833 0.054374 0.070689 0.090294 
0.113770 0.141756 0.174910 0.213860 0.259112 0.310906 
0.369028 0.432571 0.499686 0.567375 0.631455 0.686794 
0.727919 0.749948 0.749655 0.726310 0.681957 0.620990 
0.549177 0.472509 0.396221 0.324235 0.259012 0.201719 
0.152537 0.110997 0.076274 0.047388 0.023353 0.000000 
0.000000 0.003492 0.008884 0.015443 0.023398 0.033026 
0.044659 0.058688 0.075575 0.095855 0.120130 0.149060 
0.183330 0.223592 0.270369 0.323905 0.383965 0.449583 
0.518791 0.588410 0.654017 0.710212 0.751284 0.772223 
0.769850 0.743675 0.696123 0.632012 0.557468 0.478702 
0.401019 0.328286 0.262842 0.205707 0.156929 0.115936 
0.081824 0.053573 0.030171 0.000000 0.000000 0.005726 
0.011342 0.018158 0.026410 0.036380 0.048410 0.062901 
0.080328 0.101239 0.126254 0.156050 0.191332 0.232767 
0.280888 0.335936 0.397648 0.464993 0.535891 0.606997 
0.673672 0.730288 0.770944 0.790555 0.786027 0.757122 
0.706632 0.639755 0.562918 0.482491 0.403802 0.330640 
0.265211 0.208394 0.160117 0.119713 0.086222 0.058585 
0.035779 0.000000 0.000000 0.007951 0.013777 0.020835 
0.029366 0.039658 0.052060 0.066983 0.084910 0.106401 
0.132086 0.162658 0.198831 0.241283 0.290546 0.346851 
0.409901 0.478599 0.550759 0.622885 0.690157 0.746762 
0.786664 0.804751 0.798050 0.766583 0.713482 0.644272 
0.565616 0.483989 0.404699 0.331432 0.266258 0.209924 
0.162248 0.122488 0.089634 0.062606 0.040372 0.000000 
0.000000 0.010152 0.016173 0.023455 0.032244 0.042835 
0.055580 0.070898 0.089278 0.111288 0.137566 0.168811 
0.205743 0.249038 0.299225 0.356512 0.420566 0.490222 
0.563197 0.635868 0.703266 0.759443 0.798283 0.814697 
0.805861 0.772057 0.716721 0.645649 0.565674 0.483318 
0.403832 0.330783 0.266104 0.210419 0.163448 0.124389 
0.092198 0.065780 0.044104 0.000000 0.000000 0.012310 
0.018508 0.025994 0.035019 0.045881 0.058936 0.074607 
0.093388 0.115849 0.142632 0.174437 0.211981 0.255936 
0.306812 0.364793 0.429501 0.499710 0.573049 0.645789 
0.712855 0.768210 0.805718 0.820356 0.809474 0.773603 
0.716444 0.644003 0.563218 0.480604 0.401322 0.328807 
0.264856 0.209979 0.163818 0.125522 0.094022 0.068222 
0.047097 0.000000 0.000000 0.014402 0.020757 0.028427 
0.037661 0.048763 0.062091 0.078068 0.097190 0.120028 
0.147221 0.179464 0.217466 0.261884 0.313206 0.371583 
0.436592 0.506946 0.580200 0.652548 0.718845 0.773021 
0.808966 0.821769 0.808972 0.771340 0.712792 0.639481 
0.558389 0.475976 0.397284 0.325605 0.262605 0.208693 
0.163444 0.125972 0.095197 0.070028 0.049452 0.000000 
0.000000 0.016401 0.022893 0.030722 0.040139 0.051447 
0.065005 0.081237 0.100637 0.123770 0.151271 0.183823 
0.222121 0.266800 0.318320 0.376794 0.441751 0.511849 
0.584587 0.656105 0.721229 0.773906 0.808102 0.819055 
0.804507 0.765438 0.705940 0.632252 0.551340 0.469566 
0.391829 0.321272 0.259434 0.206636 0.162398 0.125811 
0.095796 0.071272 0.051247 0.000000 0.000000 0.018275 
0.024884 0.032847 0.042416 0.053894 0.067638 0.084070 
0.103678 0.127022 0.154723 0.187450 0.225878 0.270614 
0.322084 0.380359 0.444921 0.514381 0.586194 0.656477 
0.720067 0.770970 0.803275 0.812399 0.796290 0.756117 
0.696100 0.622506 0.542234 0.461510 0.385067 0.315896 
0.255418 0.203871 0.160738 0.125097 0.095877 0.072017 
0.052549 0.000000 0.000000 0.019993 0.026697 0.034767 
0.044456 0.056066 0.069949 0.086523 0.106268 0.129732 
0.157523 0.190290 0.228680 0.273270 0.324446 0.382237 
0.446080 0.514543 0.585058 0.653744 0.715483 0.764386 
0.794701 0.802047 0.784579 0.743634 0.683509 0.610451 
0.531242 0.451942 0.377104 0.309562 0.250622 0.200457 
0.158517 0.123879 0.095490 0.072314 0.053411 0.000000 
0.000000 0.021518 0.028295 0.036446 0.046224 0.057925 
0.071898 0.088553 0.108360 0.131854 0.159623 0.192293 
0.230481 0.274728 0.325379 0.382417 0.445238 0.512380 
0.581263 0.648036 0.707661 0.754385 0.782651 0.788295 
0.769677 0.728274 0.668424 0.596301 0.518539 0.440998 
0.368041 0.302345 0.245109 0.196443 0.155779 0.122201 
0.094678 0.072206 0.053877 0.000000 0.000000 0.022815 
0.029642 0.037848 0.047681 0.059433 0.073447 0.090121 
0.109916 0.133347 0.160984 0.193423 0.231251 0.274966 
0.324874 0.380913 0.442441 0.507974 0.574939 0.639535 
0.696833 0.741250 0.767442 0.771477 0.751915 0.710346 
0.651112 0.580281 0.504300 0.428812 0.357980 0.294322 
0.238934 0.191875 0.152563 0.120098 0.093476 0.071729 
0.053984 0.000000 0.000000 0.023847 0.030705 0.038939 
0.048794 0.060556 0.074560 0.091193 0.110900 0.134180 
0.161576 0.193657 0.230972 0.273983 0.322949 0.377769 
0.437766 0.501445 0.566254 0.628464 0.683276 0.725299 
0.749423 0.751955 0.731641 0.690168 0.631849 0.562615 
0.488699 0.415516 0.347017 0.285563 0.232151 0.186794 
0.148905 0.117602 0.091915 0.070914 0.053765 0.000000 
0.000000 0.024581 0.031449 0.039687 0.049532 0.061264 
0.075208 0.091740 0.111287 0.134327 0.161380 0.192982 
0.229647 0.271795 0.319644 0.373053 0.431320 0.492944 
0.555411 0.615078 0.667295 0.706879 0.728967 0.730102 
0.709214 0.668061 0.610907 0.543522 0.471908 0.401236 
0.335243 0.276134 0.224809 0.181240 0.144837 0.114742 
0.090022 0.069788 0.053247 0.000000 0.000000 0.024983 
0.031845 0.040063 0.049868 0.061532 0.075368 0.091740 
0.111057 0.133776 0.160389 0.191402 0.227291 0.268437 
0.315018 0.366858 0.423234 0.482650 0.542638 0.599655 
0.649215 0.686352 0.706452 0.706298 0.684987 0.644340 
0.588553 0.523215 0.454089 0.386092 0.322747 0.266099 
0.216955 0.175247 0.140388 0.111545 0.087823 0.068376 
0.052455 0.000000 0.000000 0.025029 0.031869 0.040045 
0.049781 0.061340 0.075024 0.091182 0.110204 0.132525 
0.158611 0.188935 0.223939 0.263965 0.309154 0.359298 
0.413662 0.470761 0.528181 0.582490 0.629371 0.664081 
0.682256 0.680911 0.659306 0.619309 0.565038 0.501895 
0.435394 0.370199 0.309610 0.255517 0.208632 0.168851 
0.135586 0.108034 0.085339 0.066701 0.051410 0.000000 
0.000000 0.024696 0.031501 0.039616 0.049258 0.060679 
0.074169 0.090061 0.108729 0.130583 0.156064 0.185613 
0.219640 0.258449 0.302148 0.350504 0.402771 0.457487 
0.512296 0.563881 0.608097 0.640424 0.656745 0.654297 
0.632495 0.593251 0.540597 0.479748 0.415967 0.353659 
0.295909 0.244443 0.199882 0.162081 0.130457 0.104232 
0.082594 0.064782 0.050133 0.000000 0.000000 0.023972 
0.030732 0.038770 0.048294 0.059547 0.072805 0.088386 
0.106645 0.127972 0.152780 0.181483 0.214456 0.251973 
0.294112 0.340619 0.390743 0.443047 0.495241 0.544123 
0.585719 0.615726 0.630262 0.626784 0.604854 0.566423 
0.515442 0.456940 0.395932 0.336568 0.281711 0.232928 
0.190742 0.154969 0.125027 0.100163 0.079606 0.062640 
0.048644 0.000000 0.000000 0.022853 0.029561 0.037508 
0.046894 0.057951 0.070944 0.086174 0.103978 0.124726 
0.148805 0.176602 0.208464 0.244635 0.285168 0.329793 
0.377761 0.427661 0.477272 0.523503 0.562546 0.590306 
0.603127 0.598673 0.576651 0.539055 0.489760 0.433617 
0.375400 0.319006 0.267077 0.221015 0.181246 0.147542 
0.119318 0.095848 0.076397 0.060294 0.046960 0.000000 
0.000000 0.021345 0.027995 0.035840 0.045072 0.055910 
0.068608 0.083452 0.100762 0.120887 0.144191 0.171038 
0.201748 0.236541 0.275446 0.318184 0.364010 0.411545 
0.458631 0.502289 0.538864 0.564457 0.575624 0.570230 
0.548122 0.511344 0.463710 0.409902 0.354464 0.301042 
0.252057 0.208745 0.171427 0.139826 0.113355 0.091308 
0.072987 0.057764 0.045100 0.000000 0.000000 0.019467 
0.026054 0.033789 0.042852 0.053452 0.065831 0.080259 
0.097042 0.116509 0.139005 0.164870 0.194403 0.227800 
0.265078 0.305947 0.349672 0.394904 0.439549 0.480730 
0.514934 0.538441 0.548006 0.541682 0.519463 0.483453 
0.437417 0.385891 0.333194 0.282730 0.236694 0.196150 
0.161310 0.131845 0.107158 0.086562 0.069395 0.055066 
0.043081 0.000000 0.000000 0.017245 0.023769 0.031386 
0.040268 0.050614 0.062652 0.076642 0.092872 0.111655 
0.133318 0.158182 0.186525 0.218529 0.254196 0.293234 
0.334918 0.377932 0.420238 0.459051 0.490987 0.512485 
0.520485 0.513221 0.490835 0.455507 0.410979 0.361654 
0.311643 0.264108 0.221016 0.183255 0.150919 0.123621 
0.100749 0.081632 0.065640 0.052222 0.040920 0.000000 
0.000000 0.014721 0.021180 0.028673 0.037364 0.047441 
0.059123 0.072655 0.088312 0.106392 0.127207 0.151060 
0.178215 0.208840 0.242929 0.280191 0.319912 0.360805 
0.400887 0.437451 0.467223 0.486783 0.493236 0.484995 
0.462356 0.427596 0.384456 0.337231 0.289838 0.245196 
0.205043 0.170078 0.140272 0.115173 0.094147 0.076537 
0.061742 0.049248 0.038635 0.000000 0.000000 0.011946 
0.018337 0.025700 0.034191 0.043988 0.055300 0.068359 
0.083430 0.100795 0.120754 0.143597 0.169575 0.198847 
0.231403 0.266954 0.304801 0.343684 0.381665 0.416102 
0.443811 0.461491 0.466399 0.457115 0.434105 0.399766 
0.357872 0.312634 0.267782 0.225997 0.188777 0.156628 
0.129382 0.106515 0.087370 0.071297 0.057721 0.046164 
0.036244 0.000000 0.000000 0.008978 0.015298 0.022525 
0.030808 0.040315 0.051245 0.063821 0.078294 0.094939 
0.114041 0.135881 0.160701 0.188655 0.219731 0.253648 
0.289719 0.326709 0.362716 0.395148 0.420889 0.436735 
0.440072 0.429651 0.406119 0.372028 0.331217 0.287838 
0.245451 0.206493 0.172212 0.142903 0.118256 0.097662 
0.080435 0.065930 0.053596 0.042989 0.033765 0.000000 
0.000000 0.005886 0.012128 0.019212 0.027277 0.036485 
0.047024 0.059108 0.072979 0.088901 0.107150 0.128001 
0.151689 0.178365 0.208022 0.240385 0.274783 0.310001 
0.344163 0.374708 0.398567 0.412604 0.414320 0.402631 
0.378393 0.344346 0.304436 0.262788 0.222795 0.186645 
0.155322 0.128895 0.106895 0.088623 0.073357 0.060454 
0.049386 0.039743 0.031215 0.000000 0.000000 0.002739 
0.008895 0.015827 0.023666 0.032565 0.042704 0.054290 
0.067555 0.082756 0.100162 0.120040 0.142626 0.168070 
0.196371 0.227265 0.260095 0.293662 0.326104 0.354877 
0.376926 0.389159 0.389171 0.376047 0.350876 0.316639 
0.277434 0.237386 0.199729 0.166390 0.138066 0.114581 
0.095293 0.079403 0.066149 0.054886 0.045110 0.036443 
0.028612 0.000000 0.000000 -0.000387 0.005671 0.012439 
0.020039 0.028620 0.038352 0.049434 0.062093 0.076577 
0.093151 0.112078 0.133593 0.157853 0.184862 0.214372 
0.245738 0.277774 0.308621 0.335724 0.356021 0.366429 
0.364616 0.349844 0.323473 0.288778 0.250067 0.211495 
0.176138 0.145640 0.120385 0.099929 0.083438 0.070005 
0.058822 0.049244 0.040788 0.033111 0.025974 0.000000 
0.000000 0.000000 0.000000 0.000000 0.000000 0.000000 
0.000000 0.000000 0.000000 0.000000 0.000000 0.000000 
0.000000 0.000000 0.000000 0.000000 0.000000 0.000000 
0.000000 0.000000 0.000000 0.000000 0.000000 0.000000 
0.000000 0.000000 0.000000 0.000000 0.000000 0.000000 
0.000000 0.000000 0.000000 0.000000 0.000000 0.000000 
0.000000 0.000000 0.000000 0.000000 
