# vtk DataFile Version 1.0
vtk output
ASCII
DATASET POLYDATA
POINTS 1600 float
-1.002150 -0.005174 -0.978581 -0.910489 0.038426 -0.994263 
-0.818693 0.076841 -1.001837 -0.728103 0.111479 -1.003611 
-0.640061 0.143747 -1.001890 -0.555911 0.175054 -0.998982 
-0.476966 0.206775 -0.997152 -0.403595 0.239206 -0.997323 
-0.335032 0.271338 -0.998798 -0.270441 0.302088 -1.000785 
-0.208989 0.330371 -1.002491 -0.149839 0.355104 -1.003124 
-0.092277 0.375361 -1.002063 -0.036319 0.391208 -0.999753 
0.017735 0.403088 -0.997043 0.069589 0.411444 -0.994783 
0.118944 0.416720 -0.993825 0.165504 0.419358 -0.995010 
0.209227 0.419758 -0.998504 0.250517 0.418240 -1.003280 
0.289821 0.415118 -1.008188 0.327588 0.410704 -1.012079 
0.364265 0.405311 -1.013803 0.400291 0.399190 -1.012363 
0.436000 0.391966 -1.008244 0.471667 0.382909 -1.002774 
0.507567 0.371287 -0.997290 0.543976 0.356368 -0.993130 
0.581167 0.337418 -0.991631 0.619247 0.314202 -0.993534 
0.657882 0.287780 -0.998025 0.696663 0.259426 -1.004035 
0.735186 0.230411 -1.010494 0.773042 0.202007 -1.016336 
0.809892 0.175332 -1.020492 0.846517 0.148893 -1.021893 
0.884626 0.119034 -1.019475 0.925957 0.082033 -1.012172 
0.972249 0.034168 -0.998916 1.025240 -0.028283 -0.978642 
-1.004132 0.004054 -0.907352 -0.910398 0.017268 -0.915680 
-0.818465 0.039857 -0.923134 -0.728934 0.069061 -0.929658 
-0.642408 0.102123 -0.935198 -0.559488 0.136286 -0.939700 
-0.480764 0.168830 -0.943111 -0.406404 0.198316 -0.945481 
-0.336070 0.224844 -0.946987 -0.269395 0.248608 -0.947810 
-0.206011 0.269800 -0.948132 -0.145549 0.288613 -0.948135 
-0.087688 0.305227 -0.947978 -0.032394 0.319750 -0.947675 
0.020257 0.332260 -0.947187 0.070191 0.342836 -0.946472 
0.117330 0.351555 -0.945489 0.161602 0.358498 -0.944199 
0.203188 0.363757 -0.942610 0.242711 0.367457 -0.940815 
0.280841 0.369723 -0.938916 0.318248 0.370680 -0.937015 
0.355603 0.370455 -0.935215 0.393512 0.369137 -0.933612 
0.431975 0.366446 -0.932255 0.470645 0.361897 -0.931165 
0.509171 0.355002 -0.930362 0.547202 0.345271 -0.929867 
0.584388 0.332216 -0.929701 0.620603 0.315628 -0.929896 
0.656309 0.296026 -0.930516 0.692065 0.274048 -0.931631 
0.728427 0.250334 -0.933311 0.765955 0.225520 -0.935623 
0.805157 0.200169 -0.938593 0.845725 0.173563 -0.941475 
0.886671 0.143925 -0.942890 0.926989 0.109443 -0.941435 
0.965669 0.068306 -0.935712 1.001704 0.018704 -0.924318 
-1.003181 0.009916 -0.838533 -0.907944 0.008370 -0.844131 
-0.815681 0.020605 -0.852830 -0.726631 0.042748 -0.863206 
-0.641029 0.070924 -0.873836 -0.559113 0.101258 -0.883300 
-0.481113 0.129934 -0.890201 -0.407056 0.155060 -0.894096 
-0.336717 0.177065 -0.895684 -0.269858 0.196517 -0.895731 
-0.206242 0.213982 -0.895004 -0.145630 0.230028 -0.894271 
-0.087814 0.245157 -0.894165 -0.032761 0.259469 -0.894503 
0.019493 0.272913 -0.894789 0.068914 0.285437 -0.894528 
0.115465 0.296990 -0.893223 0.159115 0.307517 -0.890383 
0.200098 0.316966 -0.885925 0.239121 0.325272 -0.880492 
0.276940 0.332375 -0.874796 0.314308 0.338210 -0.869552 
0.351981 0.342717 -0.865474 0.390633 0.345818 -0.863195 
0.430141 0.347297 -0.862568 0.469931 0.346858 -0.863002 
0.509425 0.344205 -0.863900 0.548044 0.339042 -0.864664 
0.585209 0.331072 -0.864699 0.620711 0.320110 -0.863696 
0.655313 0.306260 -0.862102 0.689933 0.289674 -0.860485 
0.725490 0.270503 -0.859414 0.762903 0.248900 -0.859458 
0.802997 0.224987 -0.861129 0.845023 0.198413 -0.863998 
0.886925 0.168432 -0.866856 0.926605 0.134288 -0.868469 
0.961969 0.095221 -0.867605 0.990919 0.050475 -0.863029 
-1.000259 0.013903 -0.771063 -0.904017 0.008624 -0.777380 
-0.811366 0.014595 -0.788269 -0.722439 0.028899 -0.801711 
-0.637374 0.048617 -0.815688 -0.556307 0.070833 -0.828182 
-0.479366 0.092672 -0.837215 -0.406479 0.112667 -0.842136 
-0.337323 0.131046 -0.843894 -0.271563 0.148141 -0.843534 
-0.208863 0.164282 -0.842100 -0.148887 0.179798 -0.840635 
-0.091348 0.194982 -0.840010 -0.036250 0.209892 -0.840013 
0.016287 0.224498 -0.840022 0.066145 0.238767 -0.839413 
0.113208 0.252668 -0.837562 0.157359 0.266171 -0.833853 
0.198777 0.279174 -0.828168 0.238157 0.291455 -0.821271 
0.276248 0.302783 -0.814017 0.313796 0.312923 -0.807261 
0.351548 0.321642 -0.801857 0.390176 0.328712 -0.798565 
0.429581 0.333951 -0.797218 0.469233 0.337204 -0.797124 
0.508594 0.338317 -0.797582 0.547128 0.337137 -0.797894 
0.584300 0.333508 -0.797361 0.619918 0.327260 -0.795605 
0.654703 0.318188 -0.793090 0.689519 0.306075 -0.790413 
0.725232 0.290707 -0.788176 0.762709 0.271871 -0.786976 
0.802725 0.249348 -0.787372 0.844539 0.222866 -0.789226 
0.886150 0.192106 -0.791821 0.925521 0.156748 -0.794425 
0.960612 0.116471 -0.796304 0.989386 0.070956 -0.796724 
-0.996325 0.017503 -0.703882 -0.899510 0.014926 -0.713190 
-0.806542 0.017334 -0.726794 -0.717608 0.023868 -0.742631 
-0.632895 0.033668 -0.758636 -0.552591 0.045873 -0.772748 
-0.476874 0.059632 -0.782943 -0.405600 0.074368 -0.788569 
-0.338240 0.089835 -0.790625 -0.274242 0.105809 -0.790206 
-0.213053 0.122062 -0.788410 -0.154121 0.138370 -0.786334 
-0.096980 0.154536 -0.784901 -0.041691 0.170549 -0.783986 
0.011480 0.186465 -0.783058 0.062270 0.202342 -0.781587 
0.110414 0.218239 -0.779044 0.155651 0.234211 -0.774903 
0.198044 0.250171 -0.769052 0.238228 0.265775 -0.762109 
0.276896 0.280656 -0.754765 0.314740 0.294446 -0.747712 
0.352454 0.306775 -0.741642 0.390665 0.317295 -0.737175 
0.429382 0.325840 -0.734240 0.468258 0.332347 -0.732368 
0.506942 0.336757 -0.731088 0.545083 0.339009 -0.729930 
0.582333 0.339042 -0.728422 0.618572 0.336691 -0.726292 
0.654290 0.331513 -0.723785 0.690075 0.323022 -0.721233 
0.726516 0.310732 -0.718966 0.764199 0.294155 -0.717314 
0.803655 0.272814 -0.716597 0.844399 0.246347 -0.716924 
0.885112 0.214496 -0.718232 0.924449 0.177004 -0.720452 
0.961063 0.133613 -0.723516 0.993608 0.084068 -0.727355 
-0.992342 0.022207 -0.635930 -0.895313 0.024168 -0.649325 
-0.802234 0.024328 -0.665749 -0.713384 0.024012 -0.683423 
-0.629042 0.024542 -0.700566 -0.549488 0.027239 -0.715398 
-0.474987 0.033400 -0.726177 -0.405347 0.043394 -0.732364 
-0.339820 0.056479 -0.734881 -0.277629 0.071846 -0.734734 
-0.217994 0.088687 -0.732928 -0.160136 0.106193 -0.730469 
-0.103402 0.123653 -0.728224 -0.047913 0.140967 -0.726199 
0.005918 0.158266 -0.724069 0.057675 0.175682 -0.721512 
0.106943 0.193348 -0.718204 0.153309 0.211392 -0.713824 
0.196719 0.229747 -0.708294 0.237743 0.248001 -0.701963 
0.277016 0.265704 -0.695226 0.315172 0.282407 -0.688475 
0.352846 0.297662 -0.682105 0.390624 0.311046 -0.676478 
0.428629 0.322397 -0.671666 0.466714 0.331701 -0.667572 
0.504732 0.338944 -0.664098 0.542537 0.344114 -0.661146 
0.579980 0.347197 -0.658619 0.617020 0.348012 -0.656425 
0.653886 0.345940 -0.654495 0.690854 0.340287 -0.652761 
0.728199 0.330363 -0.651154 0.766197 0.315476 -0.649609 
0.805098 0.294945 -0.648077 0.844730 0.268281 -0.646857 
0.884575 0.235153 -0.646533 0.924103 0.195237 -0.647700 
0.962784 0.148206 -0.650948 1.000087 0.093735 -0.656873 
-0.989256 0.029467 -0.566174 -0.892303 0.033290 -0.583591 
-0.799448 0.031157 -0.602526 -0.710992 0.025742 -0.621592 
-0.627238 0.019720 -0.639403 -0.548489 0.015765 -0.654570 
-0.475032 0.016501 -0.665737 -0.406627 0.022902 -0.672516 
-0.342405 0.033955 -0.675694 -0.281458 0.048525 -0.676125 
-0.222876 0.065482 -0.674662 -0.165753 0.083692 -0.672162 
-0.109328 0.102153 -0.669377 -0.053763 0.120668 -0.666435 
0.000431 0.139346 -0.663228 0.052740 0.158296 -0.659644 
0.102654 0.177629 -0.655574 0.149663 0.197452 -0.650908 
0.193643 0.217680 -0.645618 0.235142 0.237890 -0.639813 
0.274775 0.257626 -0.633620 0.313159 0.276431 -0.627164 
0.350912 0.293847 -0.620571 0.388609 0.309444 -0.613972 
0.426426 0.323060 -0.607568 0.464316 0.334683 -0.601597 
0.502227 0.344303 -0.596300 0.540105 0.351910 -0.591913 
0.577900 0.357495 -0.588678 0.615601 0.360839 -0.586667 
0.653303 0.361173 -0.585522 0.691120 0.357642 -0.584815 
0.729163 0.349389 -0.584119 0.767547 0.335558 -0.583004 
0.806377 0.315309 -0.581089 0.845653 0.288101 -0.578786 
0.885284 0.253636 -0.577159 0.925178 0.211626 -0.577294 
0.965240 0.161781 -0.580278 1.005380 0.103811 -0.587197 
-0.987555 0.039508 -0.494469 -0.890850 0.040751 -0.515204 
-0.798550 0.035726 -0.536126 -0.710860 0.027260 -0.556222 
-0.627981 0.018182 -0.574475 -0.550118 0.011321 -0.589872 
-0.477460 0.009454 -0.601421 -0.409721 0.013658 -0.608871 
-0.346039 0.022964 -0.612863 -0.285521 0.036279 -0.614094 
-0.227271 0.052513 -0.613258 -0.170396 0.070573 -0.611050 
-0.114149 0.089479 -0.608100 -0.058707 0.108937 -0.604617 
-0.004595 0.128917 -0.600655 0.047660 0.149388 -0.596266 
0.097530 0.170320 -0.591503 0.144495 0.191679 -0.586419 
0.188429 0.213311 -0.581036 0.229909 0.234841 -0.575328 
0.269583 0.255874 -0.569264 0.308099 0.276014 -0.562813 
0.346105 0.294866 -0.555943 0.384203 0.312053 -0.548651 
0.422547 0.327410 -0.541222 0.461035 0.340890 -0.534103 
0.499564 0.352444 -0.527742 0.538029 0.362027 -0.522588 
0.576325 0.369590 -0.519088 0.614417 0.374856 -0.517417 
0.652440 0.376934 -0.517027 0.690561 0.374839 -0.517254 
0.728945 0.367583 -0.517433 0.767757 0.354178 -0.516901 
0.807152 0.333666 -0.515055 0.847083 0.305571 -0.512337 
0.887339 0.269812 -0.510055 0.927701 0.226325 -0.509543 
0.967954 0.175042 -0.512136 1.007880 0.115898 -0.519168 
-0.987168 0.051073 -0.421738 -0.890713 0.046841 -0.445076 
-0.799143 0.038748 -0.467490 -0.712457 0.028925 -0.488293 
-0.630653 0.019504 -0.506801 -0.553729 0.012615 -0.522328 
-0.481676 0.010353 -0.534206 -0.414148 0.013538 -0.542300 
-0.350405 0.021463 -0.547119 -0.289679 0.033327 -0.549210 
-0.231206 0.048330 -0.549121 -0.174219 0.065673 -0.547398 
-0.118081 0.084614 -0.544549 -0.062955 0.104775 -0.540833 
-0.009305 0.125915 -0.536414 0.042402 0.147796 -0.531456 
0.091699 0.170176 -0.526125 0.138126 0.192817 -0.520583 
0.181613 0.215461 -0.514905 0.222788 0.237817 -0.509008 
0.262346 0.259594 -0.502795 0.300985 0.280499 -0.496167 
[...]
POINT_DATA 1600
SCALARS scalars float
LOOKUP_TABLE default
0.000000 0.000000 0.000000 0.000000 0.000000 0.000000 
0.000000 0.000000 0.000000 0.000000 0.000000 0.000000 
0.000000 0.000000 0.000000 0.000000 0.000000 0.000000 
0.000000 0.000000 0.000000 0.000000 0.000000 0.000000 
0.000000 0.000000 0.000000 0.000000 0.000000 0.000000 
0.000000 0.000000 0.000000 0.000000 0.000000 0.000000 
0.000000 0.000000 0.000000 0.000000 0.000000 -3.184970 
0.035610 0.303115 -0.019114 -0.316576 -0.493190 -0.590179 
-0.529850 -0.419714 -0.347438 -0.339216 -0.332727 -0.308086 
-0.311794 -0.490022 -1.196753 -3.021054 -5.254358 -6.418858 
-6.102680 -4.796828 -3.230890 -2.275980 -2.371094 -3.166922 
-4.499572 -5.861202 -6.000494 -4.125546 -2.362362 -1.233656 
-0.543067 -0.114922 -0.202934 -0.288621 0.188886 1.227991 
1.450762 0.000000 0.000000 1.197389 1.196065 -0.011096 
-1.052806 -1.364256 -0.966425 -0.507318 -0.223341 -0.101787 
-0.100113 -0.182345 -0.152720 -0.046435 0.097635 0.213050 
0.142836 -0.616374 -2.248742 -3.578204 -4.263511 -4.274471 
-3.811590 -3.229281 -3.159121 -3.482629 -4.085402 -4.817767 
-5.337348 -4.575496 -3.194439 -1.883930 -0.883922 -0.233430 
-0.117114 -0.090216 0.294028 1.050313 1.302402 0.000000 
0.000000 1.708930 0.899144 -1.248825 -2.720215 -2.443564 
-1.101044 -0.225523 0.118844 0.154675 0.019643 -0.202454 
-0.111785 0.095662 0.362430 0.662863 0.937410 0.760716 
-0.415112 -1.660617 -2.806480 -3.692772 -4.157990 -3.886468 
-3.588950 -3.444696 -3.455738 -3.632822 -3.999171 -3.917708 
-3.177176 -2.093488 -1.039057 -0.305246 -0.105106 -0.098026 
0.110154 0.542787 0.686702 0.000000 0.000000 0.415133 
-0.236648 -2.359374 -3.676823 -2.601658 -0.390425 0.674555 
0.922676 0.712220 0.269605 -0.245950 -0.121585 0.148424 
0.461089 0.814004 1.200486 1.288701 0.450745 -0.585517 
-1.763674 -2.944665 -3.855413 -3.785095 -3.366078 -2.962668 
-2.669813 -2.544740 -2.669932 -2.791704 -2.465339 -1.713616 
-0.796226 -0.113721 0.038757 -0.078287 -0.075184 0.104038 
0.186503 0.000000 0.000000 -0.018994 -0.511780 -1.958435 
-2.636705 -1.129830 1.479579 2.470550 2.443090 1.774828 
0.822543 -0.136898 -0.067201 0.175548 0.450019 0.775852 
1.175241 1.387976 0.795986 -0.007262 -0.991229 -2.035426 
-2.899240 -2.894450 -2.531466 -2.155447 -1.858205 -1.684598 
-1.692523 -1.817535 -1.617331 -1.013276 -0.174771 0.458015 
0.465199 0.114760 -0.131344 -0.157155 -0.062005 0.000000 
0.000000 0.231324 -0.046313 -0.643733 -0.668806 0.716046 
2.919533 3.634828 3.409817 2.506276 1.329217 0.190423 
0.145632 0.268878 0.429503 0.658538 0.981939 1.192805 
0.766141 0.189197 -0.490093 -1.178376 -1.743044 -1.740224 
-1.539987 -1.350331 -1.201903 -1.106501 -1.096895 -1.180318 
-0.958227 -0.355238 0.471380 1.070550 0.944776 0.419552 
0.001322 -0.166547 -0.097682 0.000000 0.000000 -0.044816 
0.008017 -0.103914 0.081015 1.018679 2.352065 2.755161 
2.622918 2.064076 1.298865 0.505130 0.412104 0.412337 
0.439545 0.529834 0.705285 0.826126 0.532174 0.151080 
-0.273568 -0.686480 -1.029992 -1.033190 -0.939527 -0.863084 
-0.801074 -0.745155 -0.718491 -0.758253 -0.485363 0.119554 
0.855818 1.309391 1.097189 0.604996 0.218377 0.018293 
-0.012229 0.000000 0.000000 -0.330568 -0.028795 -0.003046 
0.119010 0.656127 1.393512 1.630095 1.606711 1.390597 
1.075645 0.715098 0.617800 0.523953 0.441115 0.411693 
0.456478 0.495318 0.305861 0.060876 -0.205767 -0.459683 
-0.673375 -0.674684 -0.626066 -0.592211 -0.559438 -0.511466 
-0.466783 -0.469088 -0.138512 0.487251 1.132234 1.415136 
1.129956 0.715583 0.413676 0.233659 0.115877 0.000000 
0.000000 -0.400148 -0.018361 -0.014548 -0.038699 0.187674 
0.585307 0.767049 0.825637 0.827773 0.819611 0.788463 
0.708118 0.563933 0.415236 0.307763 0.261898 0.242091 
0.130917 -0.015413 -0.173987 -0.325521 -0.459190 -0.471890 
-0.459515 -0.453514 -0.437737 -0.395366 -0.344814 -0.313691 
0.083537 0.737667 1.279240 1.391056 1.077645 0.782351 
0.615943 0.524017 0.375951 0.000000 0.000000 -0.223908 
0.090709 0.028400 -0.126320 -0.110394 0.098174 0.247316 
0.342935 0.445617 0.584924 0.730728 0.680450 0.530868 
0.363112 0.223019 0.131882 0.082847 0.026519 -0.048440 
-0.131325 -0.216847 -0.306146 -0.346227 -0.374713 -0.399626 
-0.408318 -0.391650 -0.375091 -0.329508 0.139768 0.830528 
1.277275 1.261647 0.978323 0.822937 0.821915 0.880967 
0.791000 0.000000 0.000000 0.030717 0.283152 0.192404 
-0.042401 -0.162949 -0.093009 -0.019472 0.060283 0.183080 
0.362410 0.568237 0.560473 0.440711 0.290272 0.154751 
0.059200 0.011516 -0.008727 -0.034775 -0.068723 -0.118293 
-0.193246 -0.275101 -0.352189 -0.416583 -0.466520 -0.513023 
-0.597157 -0.564067 -0.010032 0.738409 1.133036 1.065727 
0.863255 0.845590 1.005086 1.227442 1.223417 0.000000 
0.000000 -0.032989 0.243266 0.248308 0.095353 -0.038827 
-0.063080 -0.041546 0.018346 0.126856 0.283652 0.469531 
0.475777 0.387775 0.267572 0.149084 0.053970 -0.001122 
-0.016117 -0.031135 -0.050431 -0.082724 -0.137879 -0.223107 
-0.298027 -0.349791 -0.402775 -0.512144 -0.749248 -0.841416 
-0.441483 0.177808 0.573399 0.642458 0.617914 0.681472 
0.828201 0.976437 0.920063 0.000000 0.000000 -0.336226 
0.071615 0.192251 0.135257 0.033950 -0.029350 -0.041291 
-0.009057 0.072997 0.201762 0.364507 0.390392 0.332290 
0.237677 0.134572 0.044032 -0.010705 -0.019222 -0.026025 
-0.035055 -0.052968 -0.087425 -0.156464 -0.197646 -0.198358 
-0.212559 -0.340584 -0.672173 -0.886965 -0.668897 -0.223259 
0.133935 0.298534 0.399351 0.501592 0.584885 0.613651 
0.487532 0.000000 0.000000 -0.637291 -0.113709 0.096043 
0.122638 0.079334 0.014079 -0.025906 -0.025635 0.025010 
0.123993 0.261223 0.305138 0.272658 0.199255 0.110612 
0.029333 -0.017552 -0.018736 -0.018548 -0.019425 -0.024939 
-0.039341 -0.070375 -0.036652 0.071186 0.164267 0.084668 
-0.287564 -0.650701 -0.634924 -0.392182 -0.133123 0.048199 
0.200803 0.312207 0.333966 0.288708 0.163014 0.000000 
0.000000 -0.783420 -0.249051 -0.001935 0.088206 0.114685 
0.071691 0.009737 -0.019488 -0.000775 0.066290 0.173062 
0.226608 0.213558 0.157964 0.083810 0.015067 -0.021016 
-0.017486 -0.013677 -0.010072 -0.007230 -0.005566 0.019692 
0.175461 0.468808 0.761017 0.789771 0.354809 -0.238313 
-0.453120 -0.416927 -0.283069 -0.139729 0.002160 0.105229 
0.091856 0.032653 -0.036846 0.000000 0.000000 -0.725045 
-0.307848 -0.088766 0.034588 0.128577 0.127293 0.056746 
0.007246 -0.002205 0.032447 0.104498 0.157559 0.157410 
0.117208 0.058123 0.003486 -0.022713 -0.019304 -0.016756 
-0.014411 -0.011324 -0.005753 0.075028 0.382124 0.929743 
1.508622 1.678131 1.105564 0.211174 -0.238263 -0.385536 
-0.373543 -0.293948 -0.199218 -0.102337 -0.117316 -0.153292 
-0.151061 0.000000 0.000000 -0.508569 -0.304182 -0.177396 
-0.063903 0.068140 0.116957 0.065475 0.017618 -0.005690 
0.003791 0.042436 0.086572 0.093820 0.068666 0.027567 
-0.010194 -0.027786 -0.030243 -0.035170 -0.042692 -0.053241 
-0.067452 0.021645 0.402754 1.105962 1.887942 2.188019 
1.583267 0.560310 -0.015196 -0.281724 -0.370859 -0.366298 
-0.316419 -0.209363 -0.206322 -0.224249 -0.186443 0.000000 
0.000000 -0.341690 -0.305346 -0.262506 -0.182860 -0.066398 
0.003461 -0.010994 -0.036007 -0.051059 -0.045333 -0.019462 
0.015619 0.026009 0.013777 -0.009731 -0.031309 -0.042019 
-0.051653 -0.066706 -0.089372 -0.123313 -0.174154 -0.143217 
0.134783 0.690952 1.355724 1.712423 1.402820 0.685250 
0.224398 -0.037914 -0.179289 -0.243900 -0.227440 -0.129048 
-0.113538 -0.138239 -0.131161 0.000000 0.000000 -0.268041 
-0.332246 -0.339298 -0.280698 -0.178141 -0.095249 -0.078474 
-0.082510 -0.084954 -0.071922 -0.040444 -0.011023 -0.001178 
-0.007860 -0.024283 -0.042356 -0.056032 -0.073491 -0.100218 
-0.140186 -0.199013 -0.283420 -0.303253 -0.115731 0.302726 
0.841236 1.223942 1.174018 0.753876 0.425024 0.189445 
0.014507 -0.102721 -0.123682 -0.057031 -0.043528 -0.073173 
-0.092093 0.000000 0.000000 -0.279503 -0.387671 -0.406174 
-0.352289 -0.260522 -0.173038 -0.132070 -0.116967 -0.103521 
-0.074892 -0.024859 0.001029 0.008276 0.002961 -0.012077 
-0.033516 -0.056028 -0.080984 -0.119936 -0.177481 -0.258349 
-0.364394 -0.414302 -0.296942 0.000199 0.414325 0.791283 
0.949230 0.821615 0.646300 0.442898 0.223852 0.042670 
-0.032592 -0.004593 0.006178 -0.021523 -0.060875 0.000000 
0.000000 -0.385698 -0.468360 -0.460773 -0.398433 -0.314432 
-0.227956 -0.168809 -0.136795 -0.106653 -0.059220 0.013382 
0.036761 0.042124 0.039092 0.027348 0.005642 -0.022293 
-0.050283 -0.098194 -0.170108 -0.267382 -0.383661 -0.449126 
-0.393544 -0.210020 0.082391 0.427879 0.741753 0.901379 
0.905108 0.731274 0.443529 0.177430 0.035800 0.029461 
0.040246 0.018937 -0.039846 0.000000 0.000000 -0.595806 
-0.562952 -0.499504 -0.421214 -0.341855 -0.257834 -0.185479 
-0.140887 -0.098356 -0.037126 0.050634 0.074435 0.083541 
0.089907 0.091692 0.084659 0.068789 0.050431 0.004877 
-0.072479 -0.180811 -0.307838 -0.396350 -0.415980 -0.353535 
-0.185876 0.108261 0.531789 0.963726 1.168486 1.024847 
0.653622 0.293295 0.084181 0.050307 0.062302 0.046081 
-0.041519 0.000000 0.000000 -0.821971 -0.631235 -0.508846 
-0.410228 -0.320529 -0.226337 -0.146814 -0.100162 -0.063551 
-0.017972 0.043935 0.066719 0.085009 0.107619 0.133674 
0.158821 0.175010 0.174320 0.145022 0.082609 -0.012485 
-0.129474 -0.217870 -0.273968 -0.281763 -0.200830 0.017887 
0.414888 0.906222 1.169938 1.057937 0.705820 0.354040 
0.121949 0.060320 0.059568 0.035331 -0.089886 0.000000 
0.000000 -0.893440 -0.634573 -0.491244 -0.383128 -0.281685 
-0.176204 -0.096872 -0.056182 -0.033241 -0.010449 0.019788 
0.042617 0.069747 0.107035 0.155992 0.213559 0.262026 
0.273840 0.261037 0.220553 0.150400 0.054351 -0.016149 
-0.077723 -0.119645 -0.098892 0.038437 0.344342 0.779089 
1.032689 0.972297 0.700487 0.403766 0.163366 0.069684 
0.047676 0.009552 -0.138756 0.000000 0.000000 -0.825749 
-0.590610 -0.456277 -0.347873 -0.238779 -0.127897 -0.054760 
-0.022867 -0.012387 -0.007181 0.000146 0.023220 0.057534 
0.107629 0.177129 0.263260 0.336325 0.350804 0.348276 
0.328122 0.285846 0.217437 0.182595 0.137785 0.080042 
0.050265 0.104610 0.303879 0.651184 0.882053 0.879238 
0.697640 0.463361 0.213873 0.081666 0.033834 -0.018669 
-0.170222 0.000000 0.000000 -0.673035 -0.516417 -0.408407 
-0.305324 -0.193300 -0.084571 -0.022335 0.000460 0.002124 
-0.003488 -0.009922 0.011436 0.049445 0.108993 0.194826 
0.302252 0.387459 0.393423 0.393629 0.390451 0.378109 
0.346978 0.374502 0.379251 0.331625 0.262978 0.230969 
0.310254 0.550197 0.746318 0.793440 0.700160 0.534121 
0.276296 0.097146 0.018846 -0.045983 -0.184924 0.000000 
0.000000 -0.489296 -0.425078 -0.350131 -0.255909 -0.146816 
-0.048651 -0.000895 0.013434 0.010346 0.000896 -0.009975 
0.006405 0.041966 0.104450 0.199030 0.317079 0.400800 
0.390139 0.387680 0.398275 0.415869 0.428475 0.544276 
0.635546 0.630498 0.538895 0.417328 0.363411 0.483366 
0.635933 0.721258 0.708905 0.614741 0.350223 0.115413 
0.003653 -0.068772 -0.187330 0.000000 0.000000 -0.310006 
-0.324216 -0.281121 -0.198029 -0.098546 -0.018916 0.011799 
0.018070 0.012793 0.004032 -0.005533 0.005402 0.035244 
0.096318 0.193746 0.313247 0.382899 0.344113 0.327305 
0.340131 0.377438 0.427904 0.640653 0.842796 0.913778 
0.829638 0.635726 0.451074 0.444325 0.540756 0.642537 
0.691359 0.662623 0.403336 0.124125 -0.011010 -0.081088 
-0.176434 0.000000 0.000000 -0.167760 -0.219480 -0.197913 
-0.125185 -0.034479 0.030514 0.047991 0.048896 0.040211 
0.024224 -0.001920 0.032745 0.101125 0.203446 0.337785 
0.481534 0.535321 0.422097 0.334373 0.289360 0.288184 
0.323760 0.575348 0.847680 0.998692 0.977044 0.795272 
0.549662 0.428175 0.426803 0.468768 0.499982 0.487472 
0.298234 0.083582 -0.018809 -0.070661 -0.139050 0.000000 
0.000000 -0.061898 -0.125521 -0.119370 -0.054909 0.036205 
0.099070 0.109206 0.107986 0.097955 0.076703 0.036359 
0.103281 0.219177 0.370087 0.549018 0.730646 0.790997 
0.614432 0.452823 0.336913 0.277897 0.273783 0.546542 
0.877952 1.098166 1.131854 0.965745 0.677712 0.458824 
0.363165 0.334756 0.329365 0.312869 0.185323 0.043245 
-0.020099 -0.055732 -0.112181 0.000000 0.000000 0.007009 
-0.055948 -0.055168 0.012753 0.124988 0.205440 0.213645 
0.212537 0.201410 0.174552 0.121629 0.224557 0.387455 
0.583054 0.804548 1.032824 1.130027 0.923995 0.703484 
0.511771 0.375588 0.304560 0.580318 0.960632 1.236139 
1.308718 1.149432 0.827003 0.525366 0.338155 0.230453 
0.172388 0.136344 0.066621 0.005562 -0.015276 -0.039582 
-0.093819 0.000000 0.000000 0.027687 -0.026915 -0.018632 
0.074055 0.247709 0.384505 0.396724 0.392387 0.370230 
0.324792 0.248214 0.378490 0.572168 0.792967 1.041449 
1.313338 1.475234 1.301323 1.074687 0.835962 0.624212 
0.467139 0.726271 1.140017 1.445075 1.522545 1.343276 
0.980989 0.608817 0.331752 0.136746 0.011674 -0.056412 
-0.065029 -0.031947 -0.006012 -0.024315 -0.082160 0.000000 
0.000000 -0.024186 -0.054575 -0.027723 0.114045 0.418771 
0.696469 0.724486 0.697648 0.627056 0.521973 0.388294 
0.522060 0.718494 0.937586 1.191166 1.492023 1.729093 
1.657714 1.515615 1.314695 1.083212 0.857578 1.084798 
1.499073 1.776308 1.789247 1.533860 1.105955 0.672597 
0.305329 0.014488 -0.192434 -0.306462 -0.241293 -0.087271 
0.000353 -0.011905 -0.076023 0.000000 0.000000 -0.125100 
-0.063297 -0.052371 0.033837 0.337495 0.733113 0.832205 
0.803356 0.688560 0.534427 0.370036 0.458465 0.588611 
0.722710 0.871180 1.052651 1.227940 1.280578 1.339926 
1.375351 1.351497 1.237234 1.387820 1.592517 1.599862 
1.389442 1.040499 0.659956 0.362299 0.131677 -0.018644 
-0.087572 -0.074797 0.013408 0.056290 -0.002964 -0.143482 
-0.280848 0.000000 0.000000 -0.011115 0.087439 0.001322 
-0.124537 -0.133736 0.093213 0.295656 0.390526 0.385464 
0.315312 0.211061 0.265835 0.330833 0.364640 0.360552 
0.330175 0.310348 0.351549 0.490337 0.686120 0.869329 
0.951448 1.059758 1.006845 0.729281 0.357049 0.032260 
-0.165264 -0.223797 -0.107514 0.153166 0.493174 0.834853 
0.816995 0.452487 0.002961 -0.464937 -0.900270 0.000000 
0.000000 0.167244 0.414290 0.131718 -0.342994 -0.739783 
-0.703911 -0.397846 -0.145701 0.015924 0.076658 0.044720 
0.042351 0.006115 -0.126686 -0.399945 -0.813619 -1.191376 
-1.205346 -0.997981 -0.636155 -0.218053 0.133894 0.335194 
0.155745 -0.295436 -0.769361 -1.049954 -1.056652 -0.921755 
-0.401905 0.357160 1.132725 1.711438 1.424043 0.658157 
-0.072992 -0.806044 -1.732298 0.000000 0.000000 -1.282706 
0.609464 0.061838 -1.029376 -1.612187 -1.429929 -0.988369 
-0.629687 -0.326877 -0.109777 -0.034625 -0.206610 -0.582538 
-1.308697 -2.548085 -4.304284 -5.803026 -5.572196 -4.641484 
-3.294360 -1.862361 -0.675830 -0.218959 -0.577222 -1.332498 
-2.106981 -2.559500 -2.565426 -2.310662 -1.340727 0.011599 
1.216937 1.886432 1.375968 0.487903 -0.216862 -0.898630 
-1.990767 0.000000 0.000000 -14.944897 -3.106388 -2.834743 
-3.990495 -3.165785 -1.941438 -1.302374 -0.924855 -0.562364 
-0.136747 0.281662 -0.389804 -2.350199 -6.598447 -13.969567 
-23.566278 -30.005030 -25.198805 -17.724957 -10.162176 -4.397186 
-0.912109 -0.115570 -0.941275 -2.400623 -4.036175 -5.362946 
-6.228954 -6.141880 -4.681965 -2.238044 -0.075552 1.009580 
0.764955 0.162218 -0.256814 -0.608147 -1.289981 0.000000 
0.000000 0.000000 0.000000 0.000000 0.000000 0.000000 
0.000000 0.000000 0.000000 0.000000 0.000000 0.000000 
0.000000 0.000000 0.000000 0.000000 0.000000 0.000000 
0.000000 0.000000 0.000000 0.000000 0.000000 0.000000 
0.000000 0.000000 0.000000 0.000000 0.000000 0.000000 
0.000000 0.000000 0.000000 0.000000 0.000000 0.000000 
0.000000 0.000000 0.000000 0.000000 
