# vtk DataFile Version 1.0
vtk output
ASCII
DATASET POLYDATA
POINTS 1600 float
-1.002150 -0.005174 -0.978581 -0.910489 0.038426 -0.994263 
-0.818693 0.076841 -1.001837 -0.728103 0.111479 -1.003611 
-0.640061 0.143747 -1.001890 -0.555911 0.175054 -0.998982 
-0.476966 0.206775 -0.997152 -0.403595 0.239206 -0.997323 
-0.335032 0.271338 -0.998798 -0.270441 0.302088 -1.000785 
-0.208989 0.330371 -1.002491 -0.149839 0.355104 -1.003124 
-0.092277 0.375361 -1.002063 -0.036319 0.391208 -0.999753 
0.017735 0.403088 -0.997043 0.069589 0.411444 -0.994783 
0.118944 0.416720 -0.993825 0.165504 0.419358 -0.995010 
0.209227 0.419758 -0.998504 0.250517 0.418240 -1.003280 
0.289821 0.415118 -1.008188 0.327588 0.410704 -1.012079 
0.364265 0.405311 -1.013803 0.400291 0.399190 -1.012363 
0.436000 0.391966 -1.008244 0.471667 0.382909 -1.002774 
0.507567 0.371287 -0.997290 0.543976 0.356368 -0.993130 
0.581167 0.337418 -0.991631 0.619247 0.314202 -0.993534 
0.657882 0.287780 -0.998025 0.696663 0.259426 -1.004035 
0.735186 0.230411 -1.010494 0.773042 0.202007 -1.016336 
0.809892 0.175332 -1.020492 0.846517 0.148893 -1.021893 
0.884626 0.119034 -1.019475 0.925957 0.082033 -1.012172 
0.972249 0.034168 -0.998916 1.025240 -0.028283 -0.978642 
-1.004132 0.004054 -0.907352 -0.910398 0.017268 -0.915680 
-0.818465 0.039857 -0.923134 -0.728934 0.069061 -0.929658 
-0.642408 0.102123 -0.935198 -0.559488 0.136286 -0.939700 
-0.480764 0.168830 -0.943111 -0.406404 0.198316 -0.945481 
-0.336070 0.224844 -0.946987 -0.269395 0.248608 -0.947810 
-0.206011 0.269800 -0.948132 -0.145549 0.288613 -0.948135 
-0.087688 0.305227 -0.947978 -0.032394 0.319750 -0.947675 
0.020257 0.332260 -0.947187 0.070191 0.342836 -0.946472 
0.117330 0.351555 -0.945489 0.161602 0.358498 -0.944199 
0.203188 0.363757 -0.942610 0.242711 0.367457 -0.940815 
0.280841 0.369723 -0.938916 0.318248 0.370680 -0.937015 
0.355603 0.370455 -0.935215 0.393512 0.369137 -0.933612 
0.431975 0.366446 -0.932255 0.470645 0.361897 -0.931165 
0.509171 0.355002 -0.930362 0.547202 0.345271 -0.929867 
0.584388 0.332216 -0.929701 0.620603 0.315628 -0.929896 
0.656309 0.296026 -0.930516 0.692065 0.274048 -0.931631 
0.728427 0.250334 -0.933311 0.765955 0.225520 -0.935623 
0.805157 0.200169 -0.938593 0.845725 0.173563 -0.941475 
0.886671 0.143925 -0.942890 0.926989 0.109443 -0.941435 
0.965669 0.068306 -0.935712 1.001704 0.018704 -0.924318 
-1.003181 0.009916 -0.838533 -0.907944 0.008370 -0.844131 
-0.815681 0.020605 -0.852830 -0.726631 0.042748 -0.863206 
-0.641029 0.070924 -0.873836 -0.559113 0.101258 -0.883300 
-0.481113 0.129934 -0.890201 -0.407056 0.155060 -0.894096 
-0.336717 0.177065 -0.895684 -0.269858 0.196517 -0.895731 
-0.206242 0.213982 -0.895004 -0.145630 0.230028 -0.894271 
-0.087814 0.245157 -0.894165 -0.032761 0.259469 -0.894503 
0.019493 0.272913 -0.894789 0.068914 0.285437 -0.894528 
0.115465 0.296990 -0.893223 0.159115 0.307517 -0.890383 
0.200098 0.316966 -0.885925 0.239121 0.325272 -0.880492 
0.276940 0.332375 -0.874796 0.314308 0.338210 -0.869552 
0.351981 0.342717 -0.865474 0.390633 0.345818 -0.863195 
0.430141 0.347297 -0.862568 0.469931 0.346858 -0.863002 
0.509425 0.344205 -0.863900 0.548044 0.339042 -0.864664 
0.585209 0.331072 -0.864699 0.620711 0.320110 -0.863696 
0.655313 0.306260 -0.862102 0.689933 0.289674 -0.860485 
0.725490 0.270503 -0.859414 0.762903 0.248900 -0.859458 
0.802997 0.224987 -0.861129 0.845023 0.198413 -0.863998 
0.886925 0.168432 -0.866856 0.926605 0.134288 -0.868469 
0.961969 0.095221 -0.867605 0.990919 0.050475 -0.863029 
-1.000259 0.013903 -0.771063 -0.904017 0.008624 -0.777380 
-0.811366 0.014595 -0.788269 -0.722439 0.028899 -0.801711 
-0.637374 0.048617 -0.815688 -0.556307 0.070833 -0.828182 
-0.479366 0.092672 -0.837215 -0.406479 0.112667 -0.842136 
-0.337323 0.131046 -0.843894 -0.271563 0.148141 -0.843534 
-0.208863 0.164282 -0.842100 -0.148887 0.179798 -0.840635 
-0.091348 0.194982 -0.840010 -0.036250 0.209892 -0.840013 
0.016287 0.224498 -0.840022 0.066145 0.238767 -0.839413 
0.113208 0.252668 -0.837562 0.157359 0.266171 -0.833853 
0.198777 0.279174 -0.828168 0.238157 0.291455 -0.821271 
0.276248 0.302783 -0.814017 0.313796 0.312923 -0.807261 
0.351548 0.321642 -0.801857 0.390176 0.328712 -0.798565 
0.429581 0.333951 -0.797218 0.469233 0.337204 -0.797124 
0.508594 0.338317 -0.797582 0.547128 0.337137 -0.797894 
0.584300 0.333508 -0.797361 0.619918 0.327260 -0.795605 
0.654703 0.318188 -0.793090 0.689519 0.306075 -0.790413 
0.725232 0.290707 -0.788176 0.762709 0.271871 -0.786976 
0.802725 0.249348 -0.787372 0.844539 0.222866 -0.789226 
0.886150 0.192106 -0.791821 0.925521 0.156748 -0.794425 
0.960612 0.116471 -0.796304 0.989386 0.070956 -0.796724 
-0.996325 0.017503 -0.703882 -0.899510 0.014926 -0.713190 
-0.806542 0.017334 -0.726794 -0.717608 0.023868 -0.742631 
-0.632895 0.033668 -0.758636 -0.552591 0.045873 -0.772748 
-0.476874 0.059632 -0.782943 -0.405600 0.074368 -0.788569 
-0.338240 0.089835 -0.790625 -0.274242 0.105809 -0.790206 
-0.213053 0.122062 -0.788410 -0.154121 0.138370 -0.786334 
-0.096980 0.154536 -0.784901 -0.041691 0.170549 -0.783986 
0.011480 0.186465 -0.783058 0.062270 0.202342 -0.781587 
0.110414 0.218239 -0.779044 0.155651 0.234211 -0.774903 
0.198044 0.250171 -0.769052 0.238228 0.265775 -0.762109 
0.276896 0.280656 -0.754765 0.314740 0.294446 -0.747712 
0.352454 0.306775 -0.741642 0.390665 0.317295 -0.737175 
0.429382 0.325840 -0.734240 0.468258 0.332347 -0.732368 
0.506942 0.336757 -0.731088 0.545083 0.339009 -0.729930 
0.582333 0.339042 -0.728422 0.618572 0.336691 -0.726292 
0.654290 0.331513 -0.723785 0.690075 0.323022 -0.721233 
0.726516 0.310732 -0.718966 0.764199 0.294155 -0.717314 
0.803655 0.272814 -0.716597 0.844399 0.246347 -0.716924 
0.885112 0.214496 -0.718232 0.924449 0.177004 -0.720452 
0.961063 0.133613 -0.723516 0.993608 0.084068 -0.727355 
-0.992342 0.022207 -0.635930 -0.895313 0.024168 -0.649325 
-0.802234 0.024328 -0.665749 -0.713384 0.024012 -0.683423 
-0.629042 0.024542 -0.700566 -0.549488 0.027239 -0.715398 
-0.474987 0.033400 -0.726177 -0.405347 0.043394 -0.732364 
-0.339820 0.056479 -0.734881 -0.277629 0.071846 -0.734734 
-0.217994 0.088687 -0.732928 -0.160136 0.106193 -0.730469 
-0.103402 0.123653 -0.728224 -0.047913 0.140967 -0.726199 
0.005918 0.158266 -0.724069 0.057675 0.175682 -0.721512 
0.106943 0.193348 -0.718204 0.153309 0.211392 -0.713824 
0.196719 0.229747 -0.708294 0.237743 0.248001 -0.701963 
0.277016 0.265704 -0.695226 0.315172 0.282407 -0.688475 
0.352846 0.297662 -0.682105 0.390624 0.311046 -0.676478 
0.428629 0.322397 -0.671666 0.466714 0.331701 -0.667572 
0.504732 0.338944 -0.664098 0.542537 0.344114 -0.661146 
0.579980 0.347197 -0.658619 0.617020 0.348012 -0.656425 
0.653886 0.345940 -0.654495 0.690854 0.340287 -0.652761 
0.728199 0.330363 -0.651154 0.766197 0.315476 -0.649609 
0.805098 0.294945 -0.648077 0.844730 0.268281 -0.646857 
0.884575 0.235153 -0.646533 0.924103 0.195237 -0.647700 
0.962784 0.148206 -0.650948 1.000087 0.093735 -0.656873 
-0.989256 0.029467 -0.566174 -0.892303 0.033290 -0.583591 
-0.799448 0.031157 -0.602526 -0.710992 0.025742 -0.621592 
-0.627238 0.019720 -0.639403 -0.548489 0.015765 -0.654570 
-0.475032 0.016501 -0.665737 -0.406627 0.022902 -0.672516 
-0.342405 0.033955 -0.675694 -0.281458 0.048525 -0.676125 
-0.222876 0.065482 -0.674662 -0.165753 0.083692 -0.672162 
-0.109328 0.102153 -0.669377 -0.053763 0.120668 -0.666435 
0.000431 0.139346 -0.663228 0.052740 0.158296 -0.659644 
0.102654 0.177629 -0.655574 0.149663 0.197452 -0.650908 
0.193643 0.217680 -0.645618 0.235142 0.237890 -0.639813 
0.274775 0.257626 -0.633620 0.313159 0.276431 -0.627164 
0.350912 0.293847 -0.620571 0.388609 0.309444 -0.613972 
0.426426 0.323060 -0.607568 0.464316 0.334683 -0.601597 
0.502227 0.344303 -0.596300 0.540105 0.351910 -0.591913 
0.577900 0.357495 -0.588678 0.615601 0.360839 -0.586667 
0.653303 0.361173 -0.585522 0.691120 0.357642 -0.584815 
0.729163 0.349389 -0.584119 0.767547 0.335558 -0.583004 
0.806377 0.315309 -0.581089 0.845653 0.288101 -0.578786 
0.885284 0.253636 -0.577159 0.925178 0.211626 -0.577294 
0.965240 0.161781 -0.580278 1.005380 0.103811 -0.587197 
-0.987555 0.039508 -0.494469 -0.890850 0.040751 -0.515204 
-0.798550 0.035726 -0.536126 -0.710860 0.027260 -0.556222 
-0.627981 0.018182 -0.574475 -0.550118 0.011321 -0.589872 
-0.477460 0.009454 -0.601421 -0.409721 0.013658 -0.608871 
-0.346039 0.022964 -0.612863 -0.285521 0.036279 -0.614094 
-0.227271 0.052513 -0.613258 -0.170396 0.070573 -0.611050 
-0.114149 0.089479 -0.608100 -0.058707 0.108937 -0.604617 
-0.004595 0.128917 -0.600655 0.047660 0.149388 -0.596266 
0.097530 0.170320 -0.591503 0.144495 0.191679 -0.586419 
0.188429 0.213311 -0.581036 0.229909 0.234841 -0.575328 
0.269583 0.255874 -0.569264 0.308099 0.276014 -0.562813 
0.346105 0.294866 -0.555943 0.384203 0.312053 -0.548651 
0.422547 0.327410 -0.541222 0.461035 0.340890 -0.534103 
0.499564 0.352444 -0.527742 0.538029 0.362027 -0.522588 
0.576325 0.369590 -0.519088 0.614417 0.374856 -0.517417 
0.652440 0.376934 -0.517027 0.690561 0.374839 -0.517254 
0.728945 0.367583 -0.517433 0.767757 0.354178 -0.516901 
0.807152 0.333666 -0.515055 0.847083 0.305571 -0.512337 
0.887339 0.269812 -0.510055 0.927701 0.226325 -0.509543 
0.967954 0.175042 -0.512136 1.007880 0.115898 -0.519168 
-0.987168 0.051073 -0.421738 -0.890713 0.046841 -0.445076 
-0.799143 0.038748 -0.467490 -0.712457 0.028925 -0.488293 
-0.630653 0.019504 -0.506801 -0.553729 0.012615 -0.522328 
-0.481676 0.010353 -0.534206 -0.414148 0.013538 -0.542300 
-0.350405 0.021463 -0.547119 -0.289679 0.033327 -0.549210 
-0.231206 0.048330 -0.549121 -0.174219 0.065673 -0.547398 
-0.118081 0.084614 -0.544549 -0.062955 0.104775 -0.540833 
-0.009305 0.125915 -0.536414 0.042402 0.147796 -0.531456 
0.091699 0.170176 -0.526125 0.138126 0.192817 -0.520583 
0.181613 0.215461 -0.514905 0.222788 0.237817 -0.509008 
0.262346 0.259594 -0.502795 0.300985 0.280499 -0.496167 
[...]
POINT_DATA 1600
SCALARS scalars float
LOOKUP_TABLE default
0.000000 0.000000 0.000000 0.000000 0.000000 0.000000 
0.000000 0.000000 0.000000 0.000000 0.000000 0.000000 
0.000000 0.000000 0.000000 0.000000 0.000000 0.000000 
0.000000 0.000000 0.000000 0.000000 0.000000 0.000000 
0.000000 0.000000 0.000000 0.000000 0.000000 0.000000 
0.000000 0.000000 0.000000 0.000000 0.000000 0.000000 
0.000000 0.000000 0.000000 0.000000 0.000000 2.373125 
2.490417 1.943706 1.032429 -0.165650 -1.105355 -1.194261 
-0.812564 -0.324616 0.083492 0.379500 0.650791 0.922300 
1.196461 1.449638 1.618227 1.568870 1.167721 0.623613 
0.145014 -0.134839 -0.184328 -0.324602 -0.506296 -0.712419 
-1.040010 -1.525401 -1.888032 -1.230412 -0.464643 0.216087 
0.747446 1.105111 0.420835 -0.808794 -1.904933 -2.816426 
-3.275167 0.000000 0.000000 3.303986 3.430482 2.605662 
1.355215 0.189359 -0.299637 -0.166615 0.119833 0.423466 
0.693092 0.913566 1.228188 1.581741 1.943174 2.276965 
2.517970 2.427149 1.694812 0.814359 0.005027 -0.540290 
-0.719292 -0.496516 -0.323247 -0.317729 -0.540555 -1.053765 
-1.779862 -1.787096 -1.306836 -0.606058 0.033509 0.444864 
-0.094328 -1.088816 -2.079575 -3.094401 -3.873410 0.000000 
0.000000 2.708961 3.057620 2.589133 1.678538 0.948402 
0.816569 0.959232 1.120572 1.277911 1.425881 1.548391 
1.850075 2.175027 2.469927 2.713866 2.884083 2.786760 
2.105120 1.294239 0.466965 -0.223403 -0.618734 -0.425667 
-0.229362 -0.222820 -0.427841 -0.866532 -1.548097 -1.992816 
-1.955346 -1.514388 -0.940193 -0.497452 -0.788356 -1.490772 
-2.204332 -2.863683 -3.283119 0.000000 0.000000 1.341655 
1.541335 1.605539 1.651219 1.829893 2.134089 2.264395 
2.308192 2.302683 2.257421 2.159813 2.325231 2.515117 
2.675197 2.811399 2.934798 2.903716 2.420452 1.829332 
1.151567 0.451390 -0.153559 -0.254420 -0.263653 -0.363048 
-0.561394 -0.865061 -1.326267 -1.941908 -2.270818 -2.243567 
-1.955168 -1.609563 -1.615511 -1.900577 -2.162897 -2.280835 
-2.178231 0.000000 0.000000 -0.192592 -0.336850 0.116109 
1.151509 2.449878 3.436130 3.701816 3.652164 3.396986 
3.006263 2.540962 2.486998 2.531502 2.605089 2.710445 
2.854268 2.913137 2.606024 2.199127 1.670597 1.019751 
0.293810 -0.107441 -0.360022 -0.575264 -0.758540 -0.926484 
-1.171202 -1.822345 -2.368921 -2.719375 -2.826533 -2.722326 
-2.470161 -2.218102 -1.945299 -1.620688 -1.290866 0.000000 
0.000000 -1.137846 -1.284738 -0.599616 0.739947 2.422285 
3.783951 4.217322 4.165335 3.757952 3.145856 2.481519 
2.327793 2.321954 2.375828 2.477938 2.621967 2.692797 
2.432597 2.070467 1.593022 0.998622 0.311420 -0.124565 
-0.419277 -0.652182 -0.813689 -0.910855 -1.053677 -1.757347 
-2.451702 -3.058331 -3.460105 -3.545042 -3.070978 -2.375163 
-1.739769 -1.231831 -0.931913 0.000000 0.000000 -1.243012 
-1.059471 -0.333885 0.763487 2.077346 3.121673 3.446022 
3.445945 3.176113 2.726810 2.209032 2.086621 2.063562 
2.073918 2.113687 2.181950 2.189547 1.920706 1.566510 
1.130772 0.626230 0.078341 -0.213190 -0.393414 -0.552728 
-0.678741 -0.764877 -0.922383 -1.759968 -2.621940 -3.398578 
-3.898421 -3.940027 -3.257697 -2.417319 -1.746957 -1.281485 
-1.081018 0.000000 0.000000 -1.034984 -0.606048 0.085385 
0.924735 1.810728 2.417578 2.577499 2.611516 2.520088 
2.309709 2.009917 1.899093 1.828795 1.771316 1.732169 
1.716242 1.664113 1.412286 1.093542 0.720305 0.313778 
-0.097148 -0.254417 -0.330386 -0.418748 -0.512963 -0.607786 
-0.823947 -1.822848 -2.862385 -3.753018 -4.209174 -4.049392 
-3.201664 -2.407929 -1.862241 -1.528550 -1.456408 0.000000 
0.000000 -0.578216 -0.007464 0.570968 1.101667 1.520462 
1.713149 1.763926 1.838936 1.909336 1.930713 1.864671 
1.761122 1.636458 1.505568 1.383000 1.278369 1.164999 
0.945143 0.679076 0.382227 0.078324 -0.204746 -0.264724 
-0.272337 -0.311991 -0.386957 -0.504741 -0.803572 -1.953735 
-3.145199 -4.066887 -4.356806 -3.932513 -3.011146 -2.371206 
-2.029341 -1.889003 -1.966102 0.000000 0.000000 0.019958 
0.646690 1.038855 1.202963 1.155268 1.029023 1.050240 
1.182774 1.382784 1.590134 1.735245 1.650413 1.484115 
1.288958 1.087084 0.892253 0.713442 0.530176 0.325138 
0.111744 -0.090455 -0.260512 -0.266514 -0.244655 -0.263576 
-0.341252 -0.506525 -0.916043 -2.166759 -3.423023 -4.251546 
-4.296799 -3.653396 -2.777366 -2.333585 -2.209121 -2.277663 
-2.474341 0.000000 0.000000 0.640005 1.256424 1.394934 
1.167928 0.722237 0.398616 0.444951 0.643759 0.939347 
1.273421 1.578397 1.532270 1.351489 1.113250 0.845414 
0.566956 0.324362 0.174628 0.029151 -0.104839 -0.216833 
-0.295704 -0.288876 -0.270479 -0.294785 -0.403410 -0.654704 
-1.211648 -2.459538 -3.614515 -4.204498 -4.007747 -3.277200 
-2.565281 -2.326667 -2.385668 -2.599626 -2.779079 0.000000 
0.000000 1.011440 1.399350 1.374620 1.055404 0.582731 
0.302327 0.393279 0.587839 0.852749 1.161189 1.484847 
1.461063 1.296001 1.062579 0.783409 0.476608 0.213938 
0.100600 -0.005377 -0.105084 -0.197804 -0.279499 -0.379848 
-0.479237 -0.601220 -0.805213 -1.171684 -1.826640 -2.799341 
-3.551229 -3.766218 -3.425581 -2.789741 -2.349842 -2.286658 
-2.384627 -2.511761 -2.485786 0.000000 0.000000 1.105336 
1.279160 1.195786 0.937196 0.590692 0.406862 0.490304 
0.628330 0.816056 1.053956 1.344472 1.352199 1.223242 
1.014465 0.745445 0.439147 0.187203 0.111031 0.037679 
-0.040512 -0.130160 -0.233694 -0.479769 -0.758841 -1.044483 
-1.397486 -1.894555 -2.558489 -3.049697 -3.283864 -3.171964 
-2.803607 -2.340141 -2.200149 -2.293813 -2.339022 -2.245265 
-1.964348 0.000000 0.000000 0.998853 1.014317 0.942827 
0.820255 0.668436 0.586455 0.621755 0.679830 0.778126 
0.933160 1.163227 1.201864 1.118293 0.947258 0.705597 
0.422509 0.199367 0.151047 0.100097 0.036513 -0.049605 
-0.165913 -0.554696 -1.048847 -1.553873 -2.097942 -2.703569 
-3.235030 -3.153514 -2.927956 -2.604457 -2.265449 -1.970162 
-2.104264 -2.320126 -2.237908 -1.885485 -1.421464 0.000000 
0.000000 0.764005 0.677782 0.665032 0.713149 0.776671 
0.786131 0.756159 0.732093 0.744016 0.814661 0.965913 
1.022977 0.984185 0.860697 0.664366 0.425656 0.240241 
0.204717 0.163197 0.106290 0.024095 -0.093275 -0.598067 
-1.313475 -2.073645 -2.831159 -3.490690 -3.753266 -3.137968 
-2.589503 -2.155612 -1.859181 -1.696594 -2.036982 -2.305799 
-2.047293 -1.482382 -0.943343 0.000000 0.000000 0.477961 
0.338718 0.409149 0.622487 0.873145 0.955378 0.868456 
0.778408 0.718328 0.710718 0.773661 0.830804 0.828618 
0.757772 0.622116 0.444506 0.298718 0.260100 0.214639 
0.153913 0.069113 -0.049306 -0.631914 -1.531185 -2.529433 
-3.479368 -4.131326 -4.080861 -3.078082 -2.341579 -1.857660 
-1.595910 -1.524632 -1.962454 -2.181729 -1.755838 -1.083688 
-0.554294 0.000000 0.000000 0.188994 0.079507 0.228322 
0.533626 0.873885 0.994236 0.879305 0.757928 0.655262 
0.588128 0.567458 0.608605 0.630579 0.610763 0.543640 
0.436760 0.330274 0.278129 0.220154 0.148510 0.055297 
-0.067787 -0.668485 -1.636726 -2.745984 -3.787659 -4.411896 
-4.187229 -3.044979 -2.252173 -1.762052 -1.522763 -1.489999 
-1.866302 -1.931383 -1.432168 -0.792500 -0.321834 0.000000 
0.000000 -0.045452 -0.041259 0.130687 0.405941 0.719940 
0.845259 0.728976 0.603770 0.482550 0.374477 0.283960 
0.303323 0.338541 0.360944 0.358769 0.324836 0.263198 
0.201095 0.133539 0.053978 -0.044354 -0.168255 -0.713918 
-1.586678 -2.595571 -3.561742 -4.173426 -4.037341 -3.062675 
-2.364307 -1.921590 -1.690115 -1.617047 -1.769510 -1.650809 
-1.211722 -0.721870 -0.339016 0.000000 0.000000 -0.169033 
-0.099693 0.052849 0.271146 0.544771 0.682487 0.581571 
0.456327 0.314640 0.163763 0.008689 0.004801 0.044790 
0.095082 0.141787 0.169982 0.154443 0.087566 0.008775 
-0.086254 -0.202181 -0.342638 -0.813323 -1.527590 -2.345222 
-3.153500 -3.742942 -3.800132 -3.130161 -2.576790 -2.177022 
-1.912462 -1.731990 -1.614433 -1.359669 -1.018258 -0.684254 
-0.394644 0.000000 0.000000 -0.213587 -0.127072 -0.024369 
0.128219 0.357356 0.506252 0.428171 0.306198 0.146407 
-0.042094 -0.247967 -0.272934 -0.237081 -0.177298 -0.106099 
-0.038916 -0.017254 -0.082458 -0.169018 -0.276479 -0.403346 
-0.544714 -0.909439 -1.435343 -2.039261 -2.674201 -3.231405 
-3.499533 -3.210875 -2.849326 -2.487204 -2.144428 -1.807376 
-1.447659 -1.115961 -0.862096 -0.656276 -0.455344 0.000000 
0.000000 -0.208156 -0.152505 -0.114118 -0.023233 0.161354 
0.312472 0.257153 0.141692 -0.027985 -0.239035 -0.472363 
-0.516865 -0.496124 -0.446788 -0.378595 -0.304083 -0.267362 
-0.327893 -0.414762 -0.519904 -0.631839 -0.734889 -0.967830 
-1.310334 -1.726232 -2.212770 -2.730837 -3.170978 -3.274073 
-3.131860 -2.799487 -2.346045 -1.841927 -1.304464 -0.937358 
-0.742994 -0.622804 -0.486511 0.000000 0.000000 -0.193795 
-0.202286 -0.224313 -0.184462 -0.044847 0.093108 0.054644 
-0.050300 -0.214506 -0.422206 -0.651419 -0.716239 -0.723123 
-0.703465 -0.664910 -0.617914 -0.598784 -0.657604 -0.735064 
-0.813427 -0.872063 -0.891487 -0.986222 -1.175196 -1.449132 
-1.827589 -2.309297 -2.862925 -3.293740 -3.352969 -3.041980 
-2.484401 -1.852087 -1.205536 -0.821361 -0.657235 -0.575864 
-0.454056 0.000000 0.000000 -0.040885 -0.174209 -0.253070 
-0.253788 -0.160561 -0.052316 -0.074435 -0.147465 -0.265947 
-0.420026 -0.597774 -0.678095 -0.724814 -0.757691 -0.782295 
-0.807773 -0.853783 -0.932747 -1.012635 -1.070448 -1.084736 
-1.042251 -1.066070 -1.183027 -1.385271 -1.695190 -2.121917 
-2.672397 -3.225392 -3.362134 -3.064776 -2.489305 -1.844336 
-1.164075 -0.753245 -0.566121 -0.453478 -0.283758 0.000000 
0.000000 0.068570 -0.144782 -0.254926 -0.285123 -0.237164 
-0.166536 -0.173628 -0.206801 -0.265712 -0.349871 -0.458901 
-0.552818 -0.640038 -0.727394 -0.819946 -0.926481 -1.044357 
-1.137689 -1.217038 -1.261353 -1.254419 -1.189657 -1.206172 
-1.309656 -1.482633 -1.744259 -2.100405 -2.562887 -3.067131 
-3.192922 -2.935951 -2.434025 -1.860628 -1.178818 -0.719795 
-0.474249 -0.292446 -0.054046 0.000000 0.000000 0.104420 
-0.135182 -0.261051 -0.317040 -0.313682 -0.280665 -0.272762 
-0.266866 -0.268644 -0.285473 -0.324911 -0.430459 -0.556537 
-0.696980 -0.855561 -1.037875 -1.212073 -1.298571 -1.364340 
-1.395909 -1.384165 -1.325805 -1.375883 -1.500229 -1.665494 
-1.885000 -2.156252 -2.482426 -2.851200 -2.933483 -2.740229 
-2.360423 -1.901986 -1.233796 -0.708904 -0.386406 -0.129231 
0.152850 0.000000 0.000000 0.130080 -0.120022 -0.262984 
-0.347845 -0.388205 -0.386856 -0.362124 -0.320264 -0.271991 
-0.229520 -0.204466 -0.317520 -0.479954 -0.672504 -0.894437 
-1.142581 -1.350444 -1.409667 -1.452066 -1.473538 -1.470740 
-1.440686 -1.556884 -1.732343 -1.907652 -2.084971 -2.253004 
-2.411277 -2.611592 -2.644098 -2.521133 -2.278052 -1.956367 
-1.316267 -0.711919 -0.300067 0.022432 0.303435 0.000000 
0.000000 0.190648 -0.080674 -0.253657 -0.375037 -0.457403 
-0.478716 -0.435921 -0.363057 -0.273619 -0.181913 -0.101563 
-0.217090 -0.412147 -0.654168 -0.933322 -1.232372 -1.450598 
-1.469123 -1.484073 -1.498550 -1.511917 -1.520005 -1.723284 
-1.974937 -2.176692 -2.312304 -2.365000 -2.346312 -2.381991 
-2.369567 -2.308573 -2.191858 -2.009705 -1.412608 -0.723874 
-0.219417 0.148381 0.389511 0.000000 0.000000 0.282961 
-0.027706 -0.248994 -0.413799 -0.531270 -0.564694 -0.507695 
-0.415695 -0.300863 -0.176606 -0.057770 -0.171759 -0.391469 
-0.671795 -0.990801 -1.317061 -1.523798 -1.491491 -1.472213 
-1.473755 -1.495971 -1.533253 -1.827143 -2.169834 -2.414706 
-2.521636 -2.471303 -2.297057 -2.188457 -2.131302 -2.107543 
-2.084411 -2.021836 -1.482627 -0.727147 -0.148128 0.238705 
0.424024 0.000000 0.000000 0.267159 -0.088618 -0.365839 
-0.562930 -0.691716 -0.725755 -0.675141 -0.606243 -0.522840 
-0.428964 -0.329492 -0.452911 -0.674182 -0.947619 -1.251697 
-1.555787 -1.720795 -1.610480 -1.515792 -1.453983 -1.430941 
-1.444654 -1.796605 -2.221834 -2.524156 -2.640070 -2.542604 
-2.270499 -2.037421 -1.909143 -1.861507 -1.859728 -1.861265 
-1.396391 -0.645801 -0.062415 0.303382 0.449786 0.000000 
0.000000 0.282634 -0.124528 -0.464650 -0.709851 -0.867233 
-0.912856 -0.874957 -0.834232 -0.790394 -0.740817 -0.679982 
-0.813049 -1.021618 -1.267771 -1.539485 -1.816206 -1.956653 
-1.794184 -1.635811 -1.510607 -1.433986 -1.409194 -1.796696 
-2.279694 -2.618412 -2.735518 -2.603684 -2.265015 -1.933381 
-1.735491 -1.646195 -1.635995 -1.668511 -1.281097 -0.576912 
-0.018894 0.318164 0.438603 0.000000 0.000000 0.311590 
-0.138677 -0.540356 -0.857059 -1.078839 -1.163661 -1.150537 
-1.142050 -1.136245 -1.124832 -1.092717 -1.217733 -1.392997 
-1.595118 -1.826441 -2.079643 -2.219408 -2.044218 -1.848013 
-1.668896 -1.535583 -1.462926 -1.856335 -2.359602 -2.700397 
-2.799406 -2.638895 -2.264791 -1.871305 -1.612012 -1.468331 
-1.422934 -1.452347 -1.131507 -0.506598 -0.000527 0.304495 
0.414980 0.000000 0.000000 0.344329 -0.136945 -0.592683 
-1.010614 -1.357778 -1.539005 -1.575302 -1.598284 -1.607675 
-1.593776 -1.540118 -1.615131 -1.729191 -1.874786 -2.065965 
-2.304456 -2.466541 -2.328806 -2.143362 -1.944637 -1.770972 
-1.654133 -2.015338 -2.486210 -2.781619 -2.833525 -2.643229 
-2.262385 -1.852301 -1.544557 -1.335991 -1.228845 -1.219727 
-0.938199 -0.408993 0.022582 0.290312 0.403683 0.000000 
0.000000 0.377785 -0.128854 -0.630797 -1.187089 -1.760779 
-2.155947 -2.292237 -2.323276 -2.269561 -2.149180 -1.974527 
-1.937312 -1.962856 -2.048806 -2.209269 -2.444691 -2.643313 
-2.589019 -2.480488 -2.331525 -2.172839 -2.044588 -2.333067 
-2.702964 -2.892202 -2.859199 -2.629156 -2.260939 -1.883103 
-1.542290 -1.257510 -1.057497 -0.967830 -0.676692 -0.235609 
0.103618 0.318341 0.435561 0.000000 0.000000 0.482337 
0.236393 -0.134020 -0.697346 -1.461766 -2.154509 -2.477361 
-2.534856 -2.390056 -2.133197 -1.830537 -1.702757 -1.672177 
-1.725759 -1.868173 -2.093796 -2.305444 -2.340667 -2.375034 
-2.401018 -2.409737 -2.386634 -2.567579 -2.710406 -2.676738 
-2.494032 -2.216754 -1.918331 -1.731040 -1.539201 -1.364384 
-1.238225 -1.189033 -0.919779 -0.551612 -0.257076 -0.006653 
0.211280 0.000000 0.000000 0.668636 0.964511 0.874105 
0.523611 -0.079975 -0.739407 -1.196976 -1.481526 -1.569469 
-1.496252 -1.309394 -1.241091 -1.230797 -1.278105 -1.395429 
-1.583156 -1.754709 -1.790657 -1.885789 -2.023936 -2.159659 
-2.205930 -2.254344 -2.172942 -1.963463 -1.698737 -1.430441 
-1.241987 -1.330239 -1.432385 -1.563190 -1.733482 -1.932125 
-1.810222 -1.541668 -1.242255 -0.826511 -0.326296 0.000000 
0.000000 0.929140 2.287775 2.548126 2.283495 1.739378 
1.164972 0.650796 0.122382 -0.323755 -0.605062 -0.677375 
-0.754578 -0.788840 -0.807998 -0.852823 -0.956818 -1.059793 
-1.065132 -1.206536 -1.408079 -1.555305 -1.525612 -1.478806 
-1.341046 -1.110471 -0.844431 -0.596760 -0.493794 -0.825943 
-1.249207 -1.732651 -2.224170 -2.639235 -2.586838 -2.304161 
-1.929999 -1.376898 -0.650692 0.000000 0.000000 1.751281 
5.962385 6.312975 5.010599 3.577129 2.652518 2.108516 
1.603887 1.083770 0.611294 0.327939 0.112331 0.102104 
0.275860 0.533468 0.713091 0.735051 0.617699 0.150439 
-0.334700 -0.569481 -0.458093 -0.463976 -0.456257 -0.317368 
-0.067667 0.208228 0.277697 -0.237789 -1.022648 -1.882138 
-2.603524 -3.017384 -2.815520 -2.349658 -1.838052 -1.239859 
-0.509540 0.000000 0.000000 6.392553 20.133707 15.501079 
8.695288 4.718970 3.076484 2.536641 2.351245 2.272707 
2.233335 2.367753 2.690349 3.745582 5.747040 8.121480 
9.497652 8.979266 6.794278 3.966165 1.897665 0.970799 
0.907651 0.576713 0.278208 0.225746 0.419238 0.756466 
0.858946 0.321042 -0.817713 -1.980762 -2.688306 -2.815031 
-2.370640 -1.765108 -1.222387 -0.750708 -0.386479 0.000000 
0.000000 0.000000 0.000000 0.000000 0.000000 0.000000 
0.000000 0.000000 0.000000 0.000000 0.000000 0.000000 
0.000000 0.000000 0.000000 0.000000 0.000000 0.000000 
0.000000 0.000000 0.000000 0.000000 0.000000 0.000000 
0.000000 0.000000 0.000000 0.000000 0.000000 0.000000 
0.000000 0.000000 0.000000 0.000000 0.000000 0.000000 
0.000000 0.000000 0.000000 0.000000 
