# vtk DataFile Version 1.0
vtk output
ASCII
DATASET POLYDATA
POINTS 1600 float
-0.994971 -0.031289 -0.989913 -0.901933 0.013878 -1.005783 
-0.808770 0.058391 -1.012608 -0.716955 0.101510 -1.012791 
-0.627956 0.142490 -1.008731 -0.543246 0.180591 -1.002832 
-0.464257 0.215081 -0.997458 -0.391225 0.245632 -0.993825 
-0.322937 0.272405 -0.991757 -0.258095 0.295585 -0.990999 
-0.195400 0.315360 -0.991292 -0.133556 0.331918 -0.992380 
-0.071492 0.345447 -0.993993 -0.009553 0.356132 -0.995783 
0.051376 0.364162 -0.997373 0.110411 0.369724 -0.998385 
0.166668 0.373004 -0.998442 0.219268 0.374190 -0.997171 
0.267918 0.373423 -0.994553 0.313354 0.370767 -0.991203 
0.356419 0.366275 -0.987795 0.397954 0.360005 -0.985007 
0.438801 0.352010 -0.983513 0.479711 0.342356 -0.983912 
0.520551 0.331197 -0.986019 0.560688 0.318741 -0.989209 
0.599479 0.305197 -0.992851 0.636286 0.290772 -0.996314 
0.670467 0.275674 -0.998968 0.701808 0.259917 -1.000422 
0.731205 0.243003 -1.000921 0.759733 0.224352 -1.000808 
0.788469 0.203386 -1.000431 0.818489 0.179524 -1.000133 
0.850770 0.152262 -1.000232 0.884614 0.122361 -1.000542 
0.917934 0.091633 -1.000465 0.948600 0.061919 -0.999391 
0.974482 0.035062 -0.996708 0.993451 0.012906 -0.991805 
-0.989424 -0.019803 -0.938645 -0.885658 0.023462 -0.949858 
-0.791163 0.069570 -0.952540 -0.703965 0.116522 -0.949438 
-0.622093 0.162322 -0.943295 -0.543570 0.204970 -0.936859 
-0.466461 0.242507 -0.932824 -0.390025 0.274212 -0.932227 
-0.314962 0.300856 -0.934106 -0.242060 0.323302 -0.937379 
-0.172107 0.342410 -0.940964 -0.105890 0.359041 -0.943779 
-0.044036 0.373927 -0.944910 0.013814 0.386998 -0.944470 
0.068396 0.397879 -0.942963 0.120445 0.406192 -0.940895 
0.170697 0.411563 -0.938771 0.219885 0.413619 -0.937093 
0.268348 0.412310 -0.936150 0.315742 0.408157 -0.935847 
0.361650 0.401738 -0.936051 0.405655 0.393630 -0.936632 
0.447342 0.384411 -0.937457 0.486358 0.374613 -0.938406 
0.522973 0.364307 -0.939493 0.557813 0.353305 -0.940808 
0.591506 0.341414 -0.942438 0.624681 0.328445 -0.944473 
0.657966 0.314204 -0.947002 0.691742 0.298408 -0.949930 
0.725739 0.280534 -0.952680 0.759583 0.260020 -0.954596 
0.792900 0.236303 -0.955021 0.825314 0.208821 -0.953302 
0.856472 0.177125 -0.948865 0.886383 0.142672 -0.942557 
0.915356 0.108498 -0.936397 0.943709 0.077690 -0.932444 
0.971759 0.053332 -0.932753 0.999827 0.038510 -0.939380 
-0.978783 -0.010961 -0.882631 -0.870757 0.032947 -0.890801 
-0.776232 0.080122 -0.891440 -0.691693 0.128446 -0.887205 
-0.613623 0.175798 -0.880751 -0.538505 0.220056 -0.874733 
-0.462893 0.259140 -0.871752 -0.385595 0.292275 -0.872672 
-0.308140 0.320264 -0.876256 -0.232219 0.344002 -0.881143 
-0.159522 0.364384 -0.885973 -0.091741 0.382305 -0.889384 
-0.030239 0.398524 -0.890252 0.025633 0.412946 -0.888905 
0.077294 0.425155 -0.886227 0.126163 0.434733 -0.883102 
0.173661 0.441261 -0.880415 0.221197 0.444327 -0.879045 
0.269382 0.443851 -0.879388 0.317417 0.440346 -0.880986 
0.364359 0.434385 -0.883296 0.409266 0.426541 -0.885777 
0.451196 0.417387 -0.887884 0.489332 0.407450 -0.889135 
0.524112 0.396829 -0.889640 0.556680 0.385375 -0.889847 
0.588193 0.372938 -0.890206 0.619803 0.359366 -0.891170 
0.652664 0.344508 -0.893187 0.687405 0.328093 -0.896352 
0.723277 0.309540 -0.899820 0.759305 0.288215 -0.902593 
0.794518 0.263483 -0.903676 0.827942 0.234712 -0.902072 
0.858675 0.201390 -0.896899 0.886973 0.165067 -0.889183 
0.914058 0.129001 -0.881540 0.941182 0.096501 -0.876630 
0.969595 0.070878 -0.877116 1.000547 0.055441 -0.885659 
-0.965050 -0.004459 -0.823594 -0.857511 0.041763 -0.829980 
-0.763931 0.089662 -0.830125 -0.680630 0.137738 -0.826294 
-0.603930 0.184491 -0.820757 -0.530152 0.228421 -0.815779 
-0.455688 0.268055 -0.813583 -0.379283 0.302791 -0.814866 
-0.302517 0.333077 -0.818493 -0.227136 0.359424 -0.823219 
-0.154888 0.382344 -0.827799 -0.087521 0.402348 -0.830987 
-0.026448 0.419881 -0.831762 0.028976 0.434977 -0.830487 
0.080184 0.447515 -0.828049 0.128609 0.457375 -0.825339 
0.175686 0.464435 -0.823246 0.222837 0.468575 -0.822653 
0.270682 0.469795 -0.823924 0.318420 0.468304 -0.826504 
0.365105 0.464333 -0.829746 0.409792 0.458115 -0.833001 
0.451536 0.449879 -0.835623 0.489518 0.439853 -0.837034 
0.524171 0.428221 -0.837363 0.556636 0.415144 -0.837137 
0.588063 0.400779 -0.836886 0.619604 0.385287 -0.837144 
0.652405 0.368827 -0.838441 0.687094 0.351339 -0.840966 
0.722922 0.332190 -0.844011 0.758920 0.310651 -0.846723 
0.794115 0.285996 -0.848250 0.827539 0.257499 -0.847738 
0.858287 0.224539 -0.844416 0.886562 0.188328 -0.838913 
0.913487 0.151590 -0.833012 0.940211 0.117098 -0.828535 
0.967885 0.087624 -0.827303 0.997659 0.065940 -0.831136 
-0.950227 0.000002 -0.763253 -0.846201 0.049343 -0.768766 
-0.754209 0.097801 -0.769410 -0.671269 0.144853 -0.766905 
-0.594397 0.189974 -0.762971 -0.520611 0.232639 -0.759325 
-0.446982 0.272330 -0.757654 -0.372438 0.308725 -0.758515 
-0.298138 0.341740 -0.761102 -0.225376 0.371306 -0.764532 
-0.155446 0.397351 -0.767920 -0.089641 0.419806 -0.770380 
-0.029008 0.438642 -0.771189 0.026917 0.454091 -0.770618 
0.079181 0.466484 -0.769318 0.128827 0.476150 -0.767939 
0.176900 0.483421 -0.767132 0.224439 0.488625 -0.767543 
0.271913 0.491891 -0.769417 0.318793 0.493000 -0.772287 
0.364446 0.491697 -0.775617 0.408238 0.487725 -0.778868 
0.449538 0.480830 -0.781503 0.487800 0.470806 -0.783042 
0.523355 0.457940 -0.783568 0.557026 0.442798 -0.783487 
0.589643 0.425949 -0.783207 0.622035 0.407961 -0.783135 
0.655031 0.389404 -0.783680 0.689103 0.370513 -0.785049 
0.723782 0.350652 -0.786926 0.758450 0.329046 -0.788909 
0.792486 0.304916 -0.790598 0.825270 0.277485 -0.791590 
0.856218 0.246054 -0.791502 0.885328 0.211232 -0.790236 
0.913084 0.174713 -0.787934 0.939985 0.138224 -0.784745 
0.966528 0.103494 -0.780818 0.993211 0.072247 -0.776302 
-0.936317 0.002726 -0.703330 -0.837106 0.055119 -0.708528 
-0.747019 0.104154 -0.710114 -0.664104 0.150248 -0.709239 
-0.586410 0.193817 -0.707050 -0.511985 0.235280 -0.704697 
-0.438912 0.275039 -0.703307 -0.366406 0.313044 -0.703325 
-0.295050 0.348702 -0.704369 -0.225507 0.381384 -0.706009 
-0.158440 0.410464 -0.707815 -0.094513 0.435314 -0.709356 
-0.034266 0.455452 -0.710278 0.022531 0.471290 -0.710699 
0.076399 0.483584 -0.710919 0.127858 0.493088 -0.711234 
0.177430 0.500555 -0.711943 0.225634 0.506737 -0.713342 
0.272739 0.511890 -0.715523 0.318578 0.515406 -0.718219 
0.362939 0.516591 -0.721125 0.405609 0.514748 -0.723938 
0.446376 0.509182 -0.726353 0.485065 0.499294 -0.728094 
0.521871 0.485443 -0.729161 0.557198 0.468528 -0.729709 
0.591455 0.449458 -0.729897 0.625047 0.429139 -0.729882 
0.658383 0.408478 -0.729821 0.691725 0.387980 -0.729879 
0.724961 0.367098 -0.730235 0.757918 0.345114 -0.731073 
0.790422 0.321312 -0.732574 0.822299 0.294973 -0.734921 
0.853375 0.265416 -0.738238 0.883448 0.232559 -0.741643 
0.912296 0.196818 -0.743425 0.939695 0.158625 -0.741845 
0.965420 0.118410 -0.735167 0.989249 0.076605 -0.721651 
-0.925287 0.004013 -0.645515 -0.830497 0.058541 -0.650608 
-0.742305 0.108348 -0.653035 -0.659611 0.154377 -0.653487 
-0.581320 0.197572 -0.652654 -0.506333 0.238875 -0.651227 
-0.433571 0.279206 -0.649888 -0.362508 0.318665 -0.649007 
-0.293293 0.356367 -0.648575 -0.226114 0.391370 -0.648563 
-0.161156 0.422730 -0.648941 -0.098609 0.449503 -0.649680 
-0.038626 0.470947 -0.650749 0.018840 0.487561 -0.652111 
0.073916 0.500314 -0.653725 0.126728 0.510181 -0.655551 
0.177401 0.518131 -0.657550 0.226061 0.525130 -0.659682 
0.272829 0.531508 -0.661907 0.317817 0.536476 -0.664188 
0.361136 0.539132 -0.666488 0.402896 0.538575 -0.668768 
0.443209 0.533901 -0.670992 0.482184 0.524325 -0.673116 
0.519921 0.510198 -0.675032 0.556512 0.492521 -0.676598 
0.592050 0.472300 -0.677670 0.626629 0.450541 -0.678105 
0.660341 0.428250 -0.677760 0.693285 0.406065 -0.676707 
0.725580 0.383659 -0.675580 0.757346 0.360547 -0.675103 
0.788704 0.336244 -0.676003 0.819773 0.310268 -0.679005 
0.850655 0.282121 -0.684710 0.881103 0.251111 -0.691654 
0.910582 0.216378 -0.696656 0.938549 0.177061 -0.696481 
0.964462 0.132296 -0.687898 0.987779 0.081220 -0.667672 
-0.917931 0.004181 -0.590539 -0.826316 0.059690 -0.595501 
-0.739808 0.110549 -0.598374 -0.657749 0.157690 -0.599561 
-0.579482 0.202046 -0.599461 -0.504349 0.244551 -0.598476 
-0.431702 0.286111 -0.597005 -0.361181 0.326821 -0.595378 
-0.292775 0.365791 -0.593845 -0.226494 0.402075 -0.592649 
-0.162348 0.434724 -0.592034 -0.100347 0.462792 -0.592246 
-0.040502 0.485528 -0.593470 0.017165 0.503394 -0.595544 
0.072631 0.517313 -0.598172 0.125868 0.528211 -0.601057 
0.176853 0.537012 -0.603902 0.225561 0.544635 -0.606413 
0.272059 0.551408 -0.608467 0.316575 0.556621 -0.610239 
0.359350 0.559458 -0.611939 0.400630 0.559102 -0.613774 
0.440656 0.554739 -0.615952 0.479656 0.545650 -0.618642 
0.517703 0.532096 -0.621624 0.554779 0.514890 -0.624458 
0.590865 0.494852 -0.626704 0.625944 0.472801 -0.627919 
0.659999 0.449556 -0.627661 0.693053 0.425716 -0.625878 
0.725248 0.401294 -0.623538 0.756740 0.376212 -0.621771 
0.787688 0.350388 -0.621711 0.818249 0.323744 -0.624490 
0.848568 0.296140 -0.631078 0.878553 0.266440 -0.639738 
0.907919 0.232681 -0.646485 0.936375 0.192875 -0.647263 
0.963628 0.145034 -0.638021 0.989387 0.087170 -0.614704 
-0.913632 0.003566 -0.537977 -0.824108 0.059405 -0.542673 
-0.739025 0.111566 -0.545613 -0.657849 0.160626 -0.547035 
-0.580044 0.207159 -0.547177 -0.505076 0.251742 -0.546278 
-0.432416 0.294934 -0.544578 -0.361792 0.336720 -0.542390 
-0.293236 0.376399 -0.540120 -0.226801 0.413226 -0.538174 
-0.162536 0.446457 -0.536961 -0.100495 0.475350 -0.536890 
-0.040720 0.499311 -0.538276 0.016780 0.518688 -0.540861 
0.072015 0.534182 -0.544168 0.124994 0.546499 -0.547719 
0.175724 0.556341 -0.551037 0.224216 0.564408 -0.553647 
0.270551 0.570979 -0.555379 0.314942 0.575598 -0.556601 
0.357612 0.577728 -0.557734 0.398785 0.576839 -0.559197 
[...]
POINT_DATA 1600
SCALARS scalars float
LOOKUP_TABLE default
0.000000 0.000000 0.000000 0.000000 0.000000 0.000000 
0.000000 0.000000 0.000000 0.000000 0.000000 0.000000 
0.000000 0.000000 0.000000 0.000000 0.000000 0.000000 
0.000000 0.000000 0.000000 0.000000 0.000000 0.000000 
0.000000 0.000000 0.000000 0.000000 0.000000 0.000000 
0.000000 0.000000 0.000000 0.000000 0.000000 0.000000 
0.000000 0.000000 0.000000 0.000000 0.000000 0.022587 
-0.101886 -0.682735 -0.539623 0.462539 1.249718 1.158198 
0.888647 0.583912 0.331428 0.141102 0.129092 0.388985 
0.864318 1.309837 1.539540 1.417105 1.003698 0.639211 
0.384006 0.293277 0.326819 0.314469 0.160255 0.081407 
0.247801 0.591469 0.933314 2.092192 3.605520 5.373168 
6.466617 4.907764 -1.392656 -3.629075 -0.678811 4.293429 
-0.045649 0.000000 0.000000 -0.014234 0.018083 -0.176218 
0.084301 1.098813 1.647126 1.137711 0.629957 0.253519 
0.034353 -0.055241 0.051627 0.319414 0.763913 1.237712 
1.454479 1.154412 0.638373 0.307893 0.212399 0.356914 
0.673459 0.752840 0.359638 -0.184262 -0.503282 -0.494779 
-0.218688 1.074630 2.398659 3.733910 4.781718 4.800497 
1.722886 -0.223112 1.040921 4.816792 0.885570 0.000000 
0.000000 -0.148095 0.002687 -0.085777 0.062330 0.732091 
0.994571 0.447830 -0.015181 -0.241434 -0.248349 -0.113704 
0.086996 0.281026 0.533857 0.800892 0.863639 0.491835 
0.076984 -0.071433 0.091803 0.520657 1.118858 1.278336 
0.783890 0.031603 -0.594098 -0.900703 -0.854477 0.048822 
1.036471 2.015251 2.803642 2.988443 1.112474 -0.295410 
0.366058 0.817638 -12.016129 0.000000 0.000000 -0.243781 
-0.024669 -0.104693 -0.135044 0.090168 0.087085 -0.323229 
-0.617424 -0.631992 -0.420605 -0.101027 0.136139 0.223812 
0.263804 0.286239 0.199710 -0.136931 -0.383699 -0.300826 
0.153295 0.878646 1.710253 1.804343 1.201986 0.432645 
-0.227788 -0.679042 -0.925928 -0.649154 -0.046962 0.677550 
1.278159 1.368078 0.001282 -0.946114 -0.212216 -1.219337 
-13.151152 0.000000 0.000000 -0.237814 -0.018837 -0.045221 
-0.106862 -0.111891 -0.277059 -0.598805 -0.766171 -0.667233 
-0.366595 0.008824 0.180841 0.132436 0.007739 -0.092941 
-0.145492 -0.294299 -0.435519 -0.181856 0.510550 1.496677 
2.473583 2.304324 1.480329 0.687438 0.101499 -0.302287 
-0.679534 -0.982485 -0.817356 -0.313793 0.224796 0.397923 
-0.247607 -0.062730 1.616071 1.262208 -4.740820 0.000000 
0.000000 -0.134953 -0.028936 -0.017562 -0.012258 0.028858 
-0.058411 -0.292437 -0.398237 -0.325954 -0.107264 0.160188 
0.172832 0.000326 -0.191776 -0.276076 -0.193475 -0.111462 
-0.146351 0.168342 0.912429 1.949639 2.860775 2.421936 
1.461198 0.695782 0.227416 -0.056451 -0.427172 -0.942691 
-1.085468 -0.792123 -0.281576 0.113470 0.322290 1.504118 
3.181398 2.837498 0.077564 0.000000 0.000000 -0.093986 
-0.113414 -0.144772 -0.134946 -0.051378 -0.012569 -0.101827 
-0.144994 -0.103889 0.015894 0.145870 0.068215 -0.115881 
-0.266863 -0.291709 -0.173640 -0.047043 0.006572 0.273166 
0.859437 1.661545 2.288734 1.850645 1.069544 0.518206 
0.264106 0.151545 -0.130623 -0.612560 -0.887908 -0.817115 
-0.487972 -0.115969 0.338258 1.437813 2.316545 1.809248 
0.340913 0.000000 0.000000 -0.088110 -0.194949 -0.278494 
-0.278180 -0.176700 -0.068342 -0.065194 -0.074047 -0.048335 
0.016711 0.060896 -0.050445 -0.211433 -0.296686 -0.240701 
-0.074459 0.049065 0.076934 0.213495 0.591154 1.130180 
1.493037 1.147291 0.606501 0.323166 0.343887 0.453486 
0.301503 -0.166977 -0.517507 -0.641891 -0.562065 -0.372054 
-0.010932 0.829248 1.315629 0.902486 -0.071406 0.000000 
0.000000 -0.064642 -0.206090 -0.307116 -0.302481 -0.190791 
-0.059089 -0.022945 -0.029508 -0.030919 -0.016767 -0.031562 
-0.139128 -0.236615 -0.217750 -0.043409 0.216338 0.358473 
0.299346 0.259913 0.383027 0.625645 0.742142 0.493717 
0.226668 0.286461 0.649278 0.975933 0.858789 0.287591 
-0.123885 -0.360161 -0.461325 -0.477948 -0.400868 0.119439 
0.497543 0.325832 -0.294414 0.000000 0.000000 -0.018353 
-0.136112 -0.213169 -0.188785 -0.063829 0.064294 0.082743 
0.049520 0.002790 -0.041070 -0.093535 -0.173332 -0.173716 
-0.010924 0.330533 0.751402 0.960604 0.766997 0.515016 
0.352341 0.291755 0.212236 0.042374 0.070603 0.543341 
1.268593 1.712426 1.451492 0.672656 0.195623 -0.087788 
-0.265580 -0.405813 -0.615791 -0.438365 -0.075447 0.027238 
-0.230116 0.000000 0.000000 -0.005338 -0.038482 -0.069582 
-0.015568 0.138860 0.258446 0.220107 0.126529 0.014829 
-0.083094 -0.139266 -0.173898 -0.069462 0.261130 0.824416 
1.481220 1.784048 1.388790 0.865343 0.400980 0.087404 
-0.070400 -0.160498 0.141615 1.021391 2.034600 2.444467 
1.923683 0.939619 0.406216 0.107921 -0.077298 -0.239219 
-0.591409 -0.726156 -0.440940 -0.120864 0.003448 0.000000 
0.000000 -0.108146 -0.017530 -0.004978 0.036722 0.138165 
0.195670 0.128332 0.022973 -0.074895 -0.126891 -0.111085 
-0.060860 0.073163 0.371804 0.845889 1.369630 1.566131 
1.188088 0.707745 0.284861 0.019036 -0.057598 0.034604 
0.483595 1.312582 2.049210 2.161108 1.588436 0.795259 
0.388333 0.173177 0.045106 -0.086019 -0.359015 -0.520153 
-0.389612 -0.150515 0.041460 0.000000 0.000000 -0.146991 
-0.012945 -0.005644 0.003644 0.056320 0.072778 -0.006374 
-0.109200 -0.167557 -0.136806 -0.019769 0.099137 0.203307 
0.373003 0.633451 0.899699 0.938480 0.651298 0.313742 
0.059707 -0.033642 0.028508 0.246431 0.691190 1.311659 
1.738256 1.673626 1.184245 0.619887 0.333734 0.195361 
0.126280 0.050342 -0.112121 -0.254493 -0.277856 -0.233008 
-0.210325 0.000000 0.000000 -0.079584 0.033595 0.010779 
-0.018687 -0.001613 -0.005080 -0.088642 -0.175440 -0.177936 
-0.044201 0.208430 0.375170 0.410047 0.402698 0.413549 
0.432078 0.355731 0.159494 -0.026131 -0.092223 0.009876 
0.233668 0.534639 0.898531 1.265552 1.414923 1.241680 
0.852035 0.484138 0.304758 0.239361 0.229174 0.213074 
0.130035 0.005534 -0.112074 -0.253578 -0.548252 0.000000 
0.000000 0.064300 0.131777 0.069319 -0.001004 -0.005839 
-0.009114 -0.091352 -0.146966 -0.079137 0.173124 0.595993 
0.781850 0.705269 0.490323 0.260171 0.096229 -0.026559 
-0.156785 -0.210721 -0.111089 0.169357 0.573140 0.963854 
1.231951 1.330849 1.205306 0.918946 0.597359 0.392733 
0.319238 0.330901 0.377745 0.409567 0.362491 0.255275 
0.119969 -0.106622 -0.679621 0.000000 0.000000 0.218677 
0.252171 0.137700 0.019160 0.013839 0.042677 -0.034212 
-0.057486 0.081129 0.457855 1.064152 1.224485 0.983075 
0.545127 0.118905 -0.136259 -0.232423 -0.318874 -0.277179 
-0.055381 0.374967 0.987410 1.515386 1.706877 1.540180 
1.133570 0.708320 0.417355 0.346808 0.381774 0.471190 
0.563455 0.617580 0.569974 0.481229 0.383871 0.196841 
-0.400194 0.000000 0.000000 0.225152 0.267072 0.098525 
-0.062823 -0.040171 0.058518 0.005746 -0.006997 0.150200 
0.566899 1.212212 1.292344 0.916399 0.366346 -0.103112 
-0.320632 -0.321128 -0.339183 -0.246523 0.011716 0.496597 
1.242979 1.878618 2.017790 1.676656 1.094490 0.586197 
0.325831 0.349653 0.457760 0.580256 0.668195 0.697774 
0.630815 0.561060 0.509184 0.399867 -0.032134 0.000000 
0.000000 0.008405 0.098447 -0.077548 -0.229967 -0.168934 
-0.011670 -0.021651 -0.056656 0.020038 0.291288 0.696425 
0.705991 0.390369 -0.008297 -0.287788 -0.340490 -0.216256 
-0.122537 -0.018343 0.166623 0.516754 1.094283 1.572079 
1.628265 1.321203 0.860322 0.485900 0.321700 0.371799 
0.447888 0.503883 0.520557 0.496519 0.425297 0.369083 
0.326139 0.244249 -0.030605 0.000000 0.000000 -0.154453 
-0.008628 -0.199478 -0.341790 -0.243564 -0.043778 -0.042359 
-0.124584 -0.134819 0.017047 0.253105 0.236413 -0.011052 
-0.274478 -0.382098 -0.262643 0.003069 0.176585 0.257770 
0.334493 0.512822 0.862130 1.146731 1.118539 0.866851 
0.563209 0.364378 0.318076 0.362695 0.379828 0.368260 
0.338602 0.296183 0.240436 0.192875 0.145744 0.069332 
-0.113638 0.000000 0.000000 -0.144282 0.005355 -0.210294 
-0.342757 -0.222580 -0.002933 -0.007535 -0.132992 -0.214107 
-0.147905 -0.000761 -0.027844 -0.209480 -0.352462 -0.305576 
-0.003837 0.441509 0.679257 0.710144 0.631083 0.578918 
0.647918 0.734510 0.632561 0.432415 0.268180 0.228548 
0.289001 0.315015 0.271623 0.207814 0.157553 0.121988 
0.087294 0.047430 0.007839 -0.032023 -0.085354 0.000000 
0.000000 0.110891 0.164279 -0.106163 -0.244458 -0.116252 
0.115783 0.098211 -0.057830 -0.189380 -0.178312 -0.052346 
-0.098814 -0.231685 -0.270671 -0.074072 0.449548 1.166399 
1.483662 1.433042 1.122946 0.759410 0.510921 0.408554 
0.242924 0.079173 0.013515 0.084579 0.217379 0.229695 
0.145399 0.052967 0.002190 -0.011974 -0.031416 -0.067898 
-0.087141 -0.064486 0.024607 0.000000 0.000000 0.514672 
0.437614 0.069822 -0.106030 0.029795 0.290380 0.253536 
0.064078 -0.110693 -0.128640 0.031349 -0.052131 -0.172167 
-0.134766 0.219133 1.046596 2.192315 2.629797 2.435068 
1.773777 1.006401 0.433531 0.169487 -0.044381 -0.183256 
-0.189838 -0.060829 0.105466 0.120155 0.024057 -0.074147 
-0.113732 -0.100033 -0.119010 -0.166107 -0.165259 -0.078872 
0.133015 0.000000 0.000000 0.383157 0.395575 0.111579 
-0.015437 0.133079 0.381131 0.339401 0.168602 0.000569 
-0.048753 0.052500 -0.006172 -0.065357 0.033743 0.446749 
1.352489 2.574419 2.930858 2.590587 1.787623 0.934972 
0.330734 0.095446 -0.028438 -0.060465 0.019305 0.190874 
0.352086 0.302689 0.156728 0.022131 -0.045102 -0.050059 
-0.072627 -0.098919 -0.071023 0.016956 0.175387 0.000000 
0.000000 -0.051924 0.156396 0.033382 -0.009974 0.162741 
0.393431 0.354395 0.210883 0.062170 -0.012274 -0.000916 
-0.005680 0.004005 0.137529 0.527757 1.313428 2.280499 
2.434032 2.034721 1.324289 0.639284 0.192126 0.084247 
0.098888 0.195515 0.372495 0.594342 0.745263 0.586304 
0.360344 0.169094 0.056053 0.011648 0.009736 0.051971 
0.123480 0.180509 0.193902 0.000000 0.000000 -0.279507 
-0.008210 -0.034688 -0.027280 0.153048 0.365708 0.339745 
0.230640 0.116182 0.047720 0.013811 0.056920 0.113879 
0.249824 0.561929 1.127638 1.728249 1.698304 1.316370 
0.785211 0.336095 0.093976 0.128502 0.273589 0.486096 
0.749445 1.011274 1.133216 0.848266 0.535773 0.288937 
0.135839 0.056790 0.091804 0.225463 0.354562 0.387511 
0.263589 0.000000 0.000000 -0.231969 -0.037614 -0.035663 
-0.017633 0.131310 0.308830 0.310961 0.256995 0.202777 
0.177449 0.157569 0.244482 0.332805 0.442996 0.624819 
0.904633 1.125745 0.966960 0.648665 0.316610 0.108519 
0.076116 0.247487 0.510560 0.827515 1.164245 1.444924 
1.507381 1.090593 0.692005 0.397003 0.216414 0.113030 
0.179387 0.395631 0.583650 0.610949 0.389737 0.000000 
0.000000 -0.064617 0.023457 0.029597 0.037285 0.119207 
0.238741 0.277064 0.294726 0.321676 0.371007 0.422797 
0.552326 0.653348 0.707530 0.723197 0.711022 0.620060 
0.383633 0.137722 -0.022466 -0.024045 0.132678 0.426083 
0.793277 1.203456 1.597720 1.869708 1.843521 1.313854 
0.841133 0.512887 0.323665 0.210124 0.270120 0.511835 
0.732068 0.763009 0.472259 0.000000 0.000000 0.028514 
0.072565 0.096616 0.101435 0.114431 0.162669 0.224168 
0.304069 0.405916 0.531848 0.673756 0.823779 0.901292 
0.874842 0.739623 0.521868 0.261032 0.012639 -0.154927 
-0.182895 -0.035274 0.257611 0.620355 1.021283 1.445867 
1.823513 2.034163 1.922387 1.397822 0.929577 0.625341 
0.467852 0.361293 0.323941 0.453980 0.625195 0.632575 
0.240080 0.000000 0.000000 -0.047844 0.012588 0.048515 
0.057120 0.047039 0.050813 0.090830 0.160132 0.252960 
0.366335 0.496434 0.594517 0.621333 0.564679 0.430462 
0.251464 0.081661 -0.020995 -0.027182 0.094681 0.353620 
0.691616 0.929151 1.012817 1.025439 1.034886 1.043626 
0.977572 0.804177 0.637722 0.555513 0.524509 0.441306 
0.210761 0.080769 0.119366 0.112891 -0.275704 0.000000 
0.000000 -0.159653 -0.050431 0.000238 0.013060 -0.002210 
-0.025352 -0.021491 0.014935 0.079760 0.165745 0.261127 
0.322101 0.319949 0.256212 0.148452 0.034798 -0.032125 
-0.011831 0.116221 0.374265 0.761617 1.204332 1.349489 
1.115425 0.725733 0.404008 0.261235 0.254564 0.302792 
0.373614 0.479795 0.557488 0.499531 0.165249 -0.077490 
-0.065944 -0.026139 -0.310405 0.000000 0.000000 -0.230722 
-0.085308 -0.031026 -0.024300 -0.048479 -0.090797 -0.117504 
-0.115526 -0.080125 -0.018004 0.049348 0.080202 0.052834 
-0.015420 -0.093203 -0.137014 -0.103296 0.021752 0.263234 
0.647593 1.175810 1.761849 1.850677 1.336796 0.611780 
0.033833 -0.215630 -0.187754 -0.084882 0.120735 0.362208 
0.529864 0.494513 0.114584 -0.142200 -0.068275 0.115212 
0.086400 0.000000 0.000000 -0.214986 -0.074810 -0.039461 
-0.056693 -0.104786 -0.164522 -0.204193 -0.224138 -0.207943 
-0.154478 -0.088193 -0.088495 -0.152552 -0.240415 -0.305056 
-0.295986 -0.177301 0.038569 0.379448 0.883096 1.545267 
2.232756 2.219557 1.434129 0.450594 -0.278680 -0.566204 
-0.526849 -0.468532 -0.210618 0.141190 0.415586 0.392028 
-0.106729 -0.400814 -0.186838 0.234040 0.391513 0.000000 
0.000000 -0.098995 -0.008437 -0.024480 -0.089857 -0.178342 
-0.252896 -0.284063 -0.306442 -0.292016 -0.224443 -0.118368 
-0.160221 -0.288387 -0.430655 -0.523656 -0.506281 -0.337009 
-0.041486 0.391996 1.011483 1.767134 2.386932 2.106693 
1.010741 -0.153766 -0.889384 -1.096687 -1.045741 -1.019523 
-0.743868 -0.252154 0.206102 0.163774 -0.824642 -1.479253 
-1.093392 -0.366136 -0.508619 0.000000 0.000000 -0.039204 
0.012071 -0.005047 -0.037388 -0.069941 -0.114704 -0.166935 
-0.218605 -0.231241 -0.169509 -0.028948 -0.083052 -0.197270 
-0.254588 -0.184179 0.031159 0.262534 0.322688 0.376422 
0.582079 0.927469 1.071695 0.534455 -0.404780 -1.069256 
-1.159819 -0.883321 -0.816695 -1.078672 -1.130539 -0.720738 
-0.119025 -0.188246 -2.180847 -3.567419 -2.599458 -1.289959 
-2.738431 0.000000 0.000000 -0.132881 -0.091856 -0.015628 
0.095573 0.215018 0.228736 0.110534 -0.008275 -0.085563 
-0.080170 0.014165 -0.034944 -0.035479 0.171470 0.678938 
1.461265 1.999860 1.512832 0.715213 0.100504 -0.093629 
-0.119398 -0.568953 -1.011715 -0.886569 -0.137009 0.776435 
0.913073 -0.100761 -0.742536 -0.639543 -0.034306 0.093070 
-2.206405 -3.023930 0.001019 2.497672 -0.106563 0.000000 
0.000000 -0.236155 -0.204769 -0.040109 0.216854 0.500610 
0.575649 0.373147 0.168432 0.020500 -0.032647 -0.024666 
-0.135230 -0.119727 0.248672 1.121107 2.481588 3.505944 
2.685146 1.216351 -0.038267 -0.524328 -0.335345 -0.634378 
-0.675583 0.145872 1.757295 3.497751 3.777595 1.470450 
0.051313 -0.175872 0.496976 1.146266 -0.575929 0.812636 
7.356742 10.892002 5.999606 0.000000 0.000000 -0.376805 
-0.364305 -0.160775 0.207968 0.665678 0.813588 0.509524 
0.207282 0.024962 -0.019604 -0.086796 -0.418073 -0.653396 
-0.401152 0.554865 2.128675 3.392376 2.636157 0.895236 
-0.727649 -1.307428 -0.775795 -1.059194 -1.056335 0.385463 
3.301969 6.641783 7.427776 3.130478 0.410754 -0.125505 
0.948651 1.988000 -0.692710 1.845532 11.042248 14.660230 
7.909984 0.000000 0.000000 -0.576171 -0.582649 -0.436318 
-0.076247 0.474135 0.668888 0.266129 -0.090224 -0.150794 
-0.003591 -0.105912 -0.963823 -1.853422 -1.975896 -1.071496 
0.416645 1.410355 0.699173 -1.331156 -3.413660 -4.163471 
-3.699078 -4.843366 -6.474164 -5.072349 0.312773 6.979729 
9.252736 2.834428 -2.339380 -2.821091 -0.163890 -0.087121 
-9.155446 -7.595266 2.932120 6.467196 0.516852 0.000000 
0.000000 0.000000 0.000000 0.000000 0.000000 0.000000 
0.000000 0.000000 0.000000 0.000000 0.000000 0.000000 
0.000000 0.000000 0.000000 0.000000 0.000000 0.000000 
0.000000 0.000000 0.000000 0.000000 0.000000 0.000000 
0.000000 0.000000 0.000000 0.000000 0.000000 0.000000 
0.000000 0.000000 0.000000 0.000000 0.000000 0.000000 
0.000000 0.000000 0.000000 0.000000 
