# vtk DataFile Version 1.0
vtk output
ASCII
DATASET POLYDATA
POINTS 1600 float
-0.994976 -0.031275 -0.989915 -0.901943 0.013873 -1.005777 
-0.808777 0.058376 -1.012601 -0.716952 0.101489 -1.012786 
-0.627942 0.142470 -1.008732 -0.543221 0.180573 -1.002837 
-0.464227 0.215069 -0.997467 -0.391195 0.245628 -0.993834 
-0.322911 0.272409 -0.991765 -0.258076 0.295598 -0.991005 
-0.195388 0.315382 -0.991297 -0.133550 0.331947 -0.992387 
-0.071488 0.345482 -0.994005 -0.009550 0.356172 -0.995803 
0.051382 0.364205 -0.997401 0.110420 0.369769 -0.998420 
0.166680 0.373049 -0.998481 0.219283 0.374234 -0.997208 
0.267935 0.373464 -0.994584 0.313372 0.370803 -0.991223 
0.356437 0.366307 -0.987804 0.397971 0.360031 -0.985004 
0.438816 0.352030 -0.983501 0.479723 0.342369 -0.983894 
0.520561 0.331204 -0.986000 0.560696 0.318743 -0.989191 
0.599487 0.305194 -0.992835 0.636294 0.290767 -0.996300 
0.670480 0.275669 -0.998953 0.701826 0.259914 -1.000406 
0.731230 0.243004 -1.000901 0.759764 0.224358 -1.000786 
0.788503 0.203396 -1.000406 0.818523 0.179537 -1.000110 
0.850798 0.152276 -1.000213 0.884631 0.122374 -1.000533 
0.917938 0.091643 -1.000468 0.948593 0.061928 -0.999406 
0.974470 0.035072 -0.996736 0.993442 0.012919 -0.991845 
-0.989435 -0.019826 -0.938611 -0.886035 0.023312 -0.949938 
-0.791470 0.069463 -0.952663 -0.703925 0.116565 -0.949558 
-0.621584 0.162556 -0.943396 -0.542630 0.205371 -0.936950 
-0.465281 0.242987 -0.932940 -0.388851 0.274661 -0.932413 
-0.313977 0.301193 -0.934390 -0.241375 0.323476 -0.937777 
-0.171761 0.342403 -0.941476 -0.105852 0.358866 -0.944390 
-0.044213 0.373625 -0.945592 0.013515 0.386613 -0.945194 
0.068043 0.397449 -0.943706 0.120084 0.405752 -0.941636 
0.170349 0.411140 -0.939496 0.219547 0.413236 -0.937792 
0.268008 0.411984 -0.936814 0.315399 0.407891 -0.936468 
0.361321 0.401525 -0.936621 0.405372 0.393453 -0.937137 
0.447152 0.384241 -0.937886 0.486322 0.374412 -0.938746 
0.523128 0.364051 -0.939735 0.558156 0.352995 -0.940947 
0.591991 0.341077 -0.942479 0.625222 0.328132 -0.944426 
0.658434 0.313994 -0.946883 0.691997 0.298385 -0.949760 
0.725703 0.280734 -0.952483 0.759253 0.260422 -0.954395 
0.792349 0.236832 -0.954844 0.824691 0.209345 -0.953175 
0.855995 0.177461 -0.948816 0.886226 0.142687 -0.942597 
0.915556 0.108192 -0.936511 0.944165 0.077197 -0.932583 
0.972230 0.052920 -0.932842 0.999930 0.038582 -0.939314 
-0.978794 -0.011001 -0.882584 -0.871246 0.032759 -0.890823 
-0.776631 0.080001 -0.891494 -0.691638 0.128522 -0.887271 
-0.612957 0.176120 -0.880825 -0.537275 0.220592 -0.874830 
-0.461347 0.259777 -0.871905 -0.384052 0.292873 -0.872915 
-0.306839 0.320718 -0.876614 -0.231304 0.344246 -0.881627 
-0.159047 0.364394 -0.886582 -0.091667 0.382094 -0.890104 
-0.030449 0.398141 -0.891058 0.025259 0.412446 -0.889772 
0.076844 0.424587 -0.887133 0.125697 0.434141 -0.884030 
0.173207 0.440683 -0.881350 0.220756 0.443794 -0.879976 
0.268942 0.443386 -0.880304 0.316982 0.439959 -0.881871 
0.363953 0.434068 -0.884129 0.408934 0.426271 -0.886529 
0.451001 0.417126 -0.888520 0.489354 0.407149 -0.889617 
0.524399 0.396455 -0.889941 0.557221 0.384932 -0.889962 
0.588918 0.372464 -0.890153 0.620585 0.358938 -0.890985 
0.653317 0.344236 -0.892933 0.687726 0.328096 -0.896098 
0.723157 0.309866 -0.899619 0.758749 0.288828 -0.902478 
0.793644 0.264269 -0.903653 0.826980 0.235473 -0.902127 
0.857957 0.201855 -0.896994 0.886762 0.165041 -0.889280 
0.914403 0.128489 -0.881608 0.941915 0.095711 -0.876652 
0.970331 0.070222 -0.877084 1.000684 0.055534 -0.885576 
-0.965058 -0.004503 -0.823548 -0.857933 0.041613 -0.829858 
-0.764272 0.089577 -0.829990 -0.680576 0.137823 -0.826194 
-0.603342 0.184784 -0.820724 -0.529069 0.228895 -0.815830 
-0.454325 0.268617 -0.813720 -0.377915 0.303324 -0.815082 
-0.301350 0.333495 -0.818784 -0.226297 0.359672 -0.823580 
-0.154427 0.382397 -0.828228 -0.087409 0.402213 -0.831483 
-0.026588 0.419592 -0.832325 0.028683 0.434576 -0.831116 
0.079815 0.447042 -0.828743 0.128217 0.456864 -0.826092 
0.175299 0.463920 -0.824053 0.222464 0.468086 -0.823508 
0.270319 0.469356 -0.824813 0.318078 0.467926 -0.827404 
0.364810 0.464012 -0.830621 0.409585 0.457830 -0.833805 
0.451475 0.449598 -0.836294 0.489673 0.439531 -0.837506 
0.524577 0.427831 -0.837590 0.557274 0.414693 -0.837113 
0.588857 0.400311 -0.836648 0.620418 0.384878 -0.836768 
0.653050 0.368591 -0.838044 0.687366 0.351393 -0.840682 
0.722717 0.332577 -0.843923 0.758254 0.311330 -0.846855 
0.793127 0.286839 -0.848563 0.826484 0.258291 -0.848136 
0.857529 0.224990 -0.844746 0.886383 0.188232 -0.839048 
0.913930 0.150962 -0.832918 0.941074 0.116174 -0.828272 
0.968720 0.086864 -0.827027 0.997774 0.066027 -0.831097 
-0.950231 -0.000036 -0.763219 -0.846452 0.049271 -0.768471 
-0.754409 0.097779 -0.769043 -0.671224 0.144932 -0.766598 
-0.594022 0.190170 -0.762797 -0.519927 0.232938 -0.759303 
-0.446116 0.272683 -0.757744 -0.371555 0.309073 -0.758655 
-0.297363 0.342035 -0.761248 -0.224790 0.371515 -0.764660 
-0.155084 0.397456 -0.768026 -0.089493 0.419804 -0.770481 
-0.029025 0.438542 -0.771319 0.026790 0.453908 -0.770810 
0.078988 0.466235 -0.769595 0.128603 0.475853 -0.768316 
0.176671 0.483097 -0.767618 0.224222 0.488296 -0.768137 
0.271722 0.491577 -0.770105 0.318645 0.492712 -0.773041 
0.364365 0.491434 -0.776388 0.408256 0.487477 -0.779592 
0.449690 0.480575 -0.782097 0.488126 0.470516 -0.783410 
0.523868 0.457599 -0.783649 0.557696 0.442418 -0.783276 
0.590396 0.425569 -0.782759 0.622754 0.407649 -0.782565 
0.655556 0.389253 -0.783161 0.689267 0.370618 -0.784774 
0.723510 0.351045 -0.787005 0.757771 0.329681 -0.789349 
0.791538 0.305672 -0.791305 0.824296 0.278165 -0.792370 
0.855558 0.246396 -0.792068 0.885237 0.211053 -0.790366 
0.913587 0.174038 -0.787596 0.940868 0.137285 -0.784105 
0.967343 0.102732 -0.780238 0.993273 0.072314 -0.776339 
-0.936317 0.002698 -0.703310 -0.837161 0.055131 -0.708087 
-0.747054 0.104196 -0.709549 -0.664068 0.150313 -0.708751 
-0.586279 0.193900 -0.706749 -0.511761 0.235379 -0.704600 
-0.438620 0.275154 -0.703338 -0.366086 0.313177 -0.703373 
-0.294733 0.348849 -0.704356 -0.225219 0.381538 -0.705893 
-0.158200 0.410616 -0.707590 -0.094333 0.435449 -0.709055 
-0.034151 0.455554 -0.709964 0.022582 0.471347 -0.710433 
0.076394 0.483588 -0.710749 0.127813 0.493038 -0.711194 
0.177368 0.500458 -0.712055 0.225583 0.506603 -0.713612 
0.272733 0.511733 -0.715941 0.318643 0.515236 -0.718753 
0.363096 0.516411 -0.721720 0.405874 0.514556 -0.724518 
0.446758 0.508972 -0.726818 0.485567 0.499056 -0.728329 
0.522477 0.485175 -0.729090 0.557869 0.468246 -0.729329 
0.592125 0.449195 -0.729277 0.625627 0.428944 -0.729166 
0.658758 0.408417 -0.729225 0.691783 0.388118 -0.729639 
0.724661 0.367448 -0.730476 0.757302 0.345634 -0.731784 
0.789616 0.321898 -0.733609 0.821512 0.295465 -0.736000 
0.852889 0.265602 -0.738957 0.883469 0.232299 -0.741700 
0.912825 0.196145 -0.742800 0.940528 0.157747 -0.740810 
0.966148 0.117712 -0.734281 0.989253 0.076647 -0.721764 
-0.925284 0.003996 -0.645508 -0.830404 0.058612 -0.650106 
-0.742213 0.108433 -0.652381 -0.659578 0.154430 -0.652914 
-0.581366 0.197573 -0.652286 -0.506446 0.238832 -0.651079 
-0.433702 0.279153 -0.649868 -0.362601 0.318643 -0.648980 
-0.293310 0.356405 -0.648449 -0.226041 0.391478 -0.648287 
-0.161002 0.422905 -0.648509 -0.098404 0.449725 -0.649128 
-0.038420 0.471185 -0.650153 0.019010 0.487783 -0.651545 
0.074031 0.500500 -0.653249 0.126790 0.510315 -0.655211 
0.177434 0.518207 -0.657375 0.226108 0.525149 -0.659686 
0.272942 0.531477 -0.662087 0.318032 0.536402 -0.664516 
0.361472 0.539021 -0.666910 0.403356 0.538430 -0.669204 
0.443779 0.533729 -0.671338 0.482833 0.524129 -0.673247 
0.520607 0.509989 -0.674866 0.557187 0.492315 -0.676132 
0.592657 0.472123 -0.676979 0.627104 0.450426 -0.677342 
0.660612 0.428238 -0.677155 0.693291 0.406194 -0.676512 
0.725311 0.383929 -0.675919 0.756850 0.360918 -0.675950 
0.788089 0.336636 -0.677178 0.819208 0.310559 -0.680177 
0.850358 0.282154 -0.685413 0.881226 0.250788 -0.691546 
0.911111 0.215737 -0.695739 0.939300 0.176279 -0.695106 
0.965082 0.131689 -0.686766 0.987743 0.081243 -0.667834 
-0.917929 0.004173 -0.590539 -0.826155 0.059779 -0.595039 
-0.739655 0.110644 -0.597765 -0.657708 0.157734 -0.599019 
-0.579596 0.202017 -0.599101 -0.504598 0.244459 -0.598311 
-0.432005 0.285999 -0.596950 -0.361439 0.326743 -0.595312 
-0.292922 0.365783 -0.593680 -0.226501 0.402156 -0.592338 
-0.162220 0.434894 -0.591569 -0.100127 0.463032 -0.591656 
-0.040261 0.485804 -0.592823 0.017369 0.503672 -0.594906 
0.072766 0.517567 -0.597599 0.125936 0.528422 -0.600594 
0.176882 0.537168 -0.603585 0.225609 0.544730 -0.606264 
0.272195 0.551443 -0.608492 0.316843 0.556598 -0.610421 
0.359772 0.559383 -0.612231 0.401200 0.558983 -0.614103 
0.441343 0.554585 -0.616220 0.480405 0.545475 -0.618727 
0.518452 0.531914 -0.621447 0.555473 0.514718 -0.624013 
0.591454 0.494709 -0.626058 0.626382 0.472708 -0.627214 
0.660245 0.449538 -0.627114 0.693080 0.425791 -0.625725 
0.725065 0.401457 -0.623889 0.756398 0.376428 -0.622587 
0.787275 0.350598 -0.622805 0.817896 0.323859 -0.625525 
0.848438 0.296049 -0.631585 0.878754 0.266079 -0.639384 
0.908428 0.232089 -0.645299 0.937034 0.192198 -0.645643 
0.964146 0.144524 -0.636730 0.989340 0.087185 -0.614875 
-0.913634 0.003566 -0.537980 -0.823941 0.059481 -0.542323 
-0.738861 0.111647 -0.545144 -0.657795 0.160665 -0.546608 
-0.580145 0.207138 -0.546879 -0.505310 0.251670 -0.546122 
-0.432704 0.294845 -0.544505 -0.362032 0.336658 -0.542313 
-0.293364 0.376393 -0.539974 -0.226789 0.413293 -0.537922 
-0.162394 0.446599 -0.536593 -0.100269 0.475553 -0.536422 
-0.040489 0.499551 -0.537748 0.016955 0.518938 -0.540318 
0.072105 0.534421 -0.543651 0.125002 0.546708 -0.547267 
0.175688 0.556507 -0.550686 0.224206 0.564521 -0.553429 
0.270648 0.571034 -0.555318 0.315198 0.575592 -0.556690 
0.358050 0.577666 -0.557941 0.399395 0.576726 -0.559462 
[...]
POINT_DATA 1600
SCALARS scalars float
LOOKUP_TABLE default
0.000000 0.000000 0.000000 0.000000 0.000000 0.000000 
0.000000 0.000000 0.000000 0.000000 0.000000 0.000000 
0.000000 0.000000 0.000000 0.000000 0.000000 0.000000 
0.000000 0.000000 0.000000 0.000000 0.000000 0.000000 
0.000000 0.000000 0.000000 0.000000 0.000000 0.000000 
0.000000 0.000000 0.000000 0.000000 0.000000 0.000000 
0.000000 0.000000 0.000000 0.000000 0.000000 0.732339 
0.306275 -0.964652 -2.231613 -3.031517 -3.189085 -2.940853 
-2.515833 -1.959201 -1.442995 -1.227825 -1.667921 -2.227844 
-2.583127 -2.708754 -2.683491 -2.494531 -2.129056 -1.785599 
-1.503639 -1.311644 -1.210609 -1.318033 -1.570166 -1.870632 
-2.104983 -2.161737 -2.144580 -2.941041 -3.843892 -4.710701 
-5.274533 -5.147376 -3.048807 -0.272703 1.988932 4.482349 
9.931588 0.000000 0.000000 0.650439 0.558741 -0.307437 
-1.569701 -2.747338 -3.138792 -2.752612 -2.178051 -1.579576 
-1.081333 -0.757659 -0.947109 -1.424942 -1.976741 -2.418277 
-2.598304 -2.403538 -2.000226 -1.665716 -1.472568 -1.476470 
-1.725208 -1.993183 -2.054541 -1.928334 -1.656699 -1.338068 
-1.286632 -2.371348 -3.287355 -4.058681 -4.605103 -4.723777 
-2.923316 -0.333543 2.194503 5.168695 9.367208 0.000000 
0.000000 0.402091 0.493142 0.064193 -0.812962 -1.855821 
-2.323960 -2.023278 -1.550397 -1.099611 -0.780198 -0.623137 
-0.782094 -1.090999 -1.466406 -1.816690 -2.001908 -1.903765 
-1.697546 -1.544850 -1.551287 -1.799778 -2.371328 -2.713973 
-2.546184 -2.030138 -1.327151 -0.666958 -0.459498 -1.569421 
-2.465284 -3.191390 -3.718068 -3.930158 -2.557128 -0.544119 
1.297114 2.928346 4.288775 0.000000 0.000000 0.075995 
0.225908 0.180308 -0.118070 -0.633382 -0.982379 -0.931076 
-0.791993 -0.676806 -0.652813 -0.746558 -0.896751 -1.018165 
-1.097454 -1.125109 -1.084725 -1.043158 -1.202638 -1.408772 
-1.740622 -2.274189 -3.070690 -3.285740 -2.843197 -2.094861 
-1.213577 -0.370092 0.081604 -0.812210 -1.620708 -2.288602 
-2.752074 -2.924149 -2.033869 -0.946254 -0.418622 -0.478977 
-0.213067 0.000000 0.000000 -0.253782 -0.118455 0.176758 
0.512337 0.704145 0.623673 0.360612 0.006200 -0.359362 
-0.703200 -1.034875 -1.102862 -0.990324 -0.755323 -0.442139 
-0.122088 -0.058774 -0.595624 -1.249935 -1.993543 -2.823062 
-3.708647 -3.642778 -2.942571 -2.096786 -1.230571 -0.403231 
0.195270 -0.279031 -0.828876 -1.343461 -1.707463 -1.825741 
-1.592021 -1.763546 -2.549876 -3.180492 -2.104522 0.000000 
0.000000 -0.391585 -0.300157 0.150133 0.778652 1.332363 
1.446728 1.046366 0.430110 -0.219476 -0.796760 -1.263641 
-1.242471 -0.970251 -0.574957 -0.132364 0.275781 0.350973 
-0.337756 -1.214628 -2.186926 -3.156252 -3.975319 -3.676874 
-2.871926 -2.063363 -1.340079 -0.716229 -0.242594 -0.319595 
-0.461114 -0.664105 -0.863038 -0.971323 -1.456394 -2.572883 
-3.670944 -3.787276 -2.380619 0.000000 0.000000 -0.231381 
-0.167088 0.155788 0.586555 0.965857 1.050105 0.755018 
0.294060 -0.229493 -0.740429 -1.189133 -1.188105 -0.972095 
-0.671395 -0.354890 -0.076465 -0.050537 -0.634040 -1.377081 
-2.210444 -3.022771 -3.640833 -3.330466 -2.669001 -2.064277 
-1.599072 -1.285081 -1.071090 -0.868951 -0.641774 -0.488183 
-0.434756 -0.432667 -1.292307 -2.714519 -3.503991 -3.189387 
-2.133947 0.000000 0.000000 0.045231 0.078673 0.217878 
0.381806 0.513282 0.521999 0.355863 0.097093 -0.226006 
-0.582358 -0.936644 -0.999882 -0.917890 -0.788856 -0.667581 
-0.588672 -0.659819 -1.068542 -1.563697 -2.109373 -2.626562 
-2.984494 -2.803148 -2.429233 -2.123450 -1.961221 -1.927851 
-1.855650 -1.374134 -0.882259 -0.474790 -0.201493 -0.054770 
-1.047251 -2.546782 -3.022557 -2.502454 -1.761912 0.000000 
0.000000 0.380420 0.349244 0.260098 0.135979 0.016009 
-0.058557 -0.103892 -0.159673 -0.250559 -0.391975 -0.585548 
-0.715592 -0.810918 -0.910823 -1.038883 -1.200708 -1.379756 
-1.566745 -1.746431 -1.925931 -2.083033 -2.150895 -2.160160 
-2.180909 -2.276604 -2.461869 -2.636124 -2.524300 -1.757274 
-1.103740 -0.568701 -0.158332 0.124512 -0.762485 -2.121432 
-2.351437 -1.815194 -1.361763 0.000000 0.000000 0.694594 
0.569133 0.248485 -0.140208 -0.485094 -0.642854 -0.590784 
-0.461731 -0.318294 -0.219595 -0.216557 -0.389897 -0.673900 
-1.034937 -1.444011 -1.853342 -2.109592 -2.047777 -1.893250 
-1.702724 -1.508051 -1.295760 -1.503554 -1.984546 -2.554684 
-3.081252 -3.333108 -3.017809 -2.006962 -1.275105 -0.704861 
-0.242870 0.120327 -0.500898 -1.522770 -1.590167 -1.170706 
-0.991125 0.000000 0.000000 0.894586 0.691741 0.191694 
-0.409689 -0.948874 -1.197183 -1.080390 -0.786833 -0.420418 
-0.089317 0.096759 -0.100024 -0.565706 -1.190817 -1.872026 
-2.479392 -2.740670 -2.441779 -1.988534 -1.483726 -1.002186 
-0.579993 -0.984476 -1.931224 -2.952616 -3.704603 -3.865309 
-3.279326 -2.135900 -1.393223 -0.837582 -0.377896 0.006507 
-0.300322 -0.874126 -0.838629 -0.596966 -0.695905 0.000000 
0.000000 0.558423 0.381718 0.028526 -0.402904 -0.813462 
-1.031593 -0.975842 -0.773597 -0.502661 -0.251545 -0.117631 
-0.324806 -0.778086 -1.365993 -1.969538 -2.449737 -2.575175 
-2.233296 -1.794816 -1.326185 -0.883430 -0.513023 -1.082254 
-2.240817 -3.347456 -3.956539 -3.832584 -3.053406 -1.977342 
-1.343967 -0.910537 -0.581316 -0.331390 -0.487442 -0.707537 
-0.584344 -0.395432 -0.487342 0.000000 0.000000 0.115080 
0.003071 -0.158176 -0.351537 -0.539791 -0.666202 -0.692253 
-0.644424 -0.562977 -0.502881 -0.538118 -0.767406 -1.136669 
-1.550354 -1.899401 -2.090509 -2.034216 -1.767882 -1.490388 
-1.217372 -0.977573 -0.821651 -1.498622 -2.639399 -3.582216 
-3.907102 -3.535013 -2.703138 -1.802927 -1.303193 -0.996402 
-0.804505 -0.703277 -0.788905 -0.785425 -0.594802 -0.394684 
-0.400232 0.000000 0.000000 -0.307144 -0.375559 -0.367094 
-0.318700 -0.252044 -0.254141 -0.357770 -0.477528 -0.616883 
-0.792493 -1.046883 -1.288278 -1.516612 -1.674122 -1.696875 
-1.571014 -1.360998 -1.225361 -1.155657 -1.135695 -1.174618 
-1.324561 -2.069546 -3.034047 -3.663850 -3.666851 -3.117739 
-2.321005 -1.650272 -1.295490 -1.112119 -1.041902 -1.051951 
-1.087472 -0.979410 -0.776845 -0.573585 -0.493809 0.000000 
0.000000 -0.670658 -0.737846 -0.588334 -0.304779 0.024592 
0.159816 -0.013465 -0.303782 -0.676041 -1.103796 -1.582898 
-1.802609 -1.831978 -1.689357 -1.390622 -1.001022 -0.694661 
-0.702738 -0.839543 -1.078304 -1.417610 -1.902082 -2.675758 
-3.367520 -3.624915 -3.334538 -2.674860 -1.952352 -1.528120 
-1.327529 -1.265739 -1.294854 -1.365558 -1.352932 -1.219359 
-1.058049 -0.899737 -0.799471 0.000000 0.000000 -0.953957 
-1.057198 -0.788442 -0.287734 0.275454 0.530468 0.296572 
-0.156592 -0.751060 -1.411387 -2.067580 -2.219341 -2.022545 
-1.600547 -1.053104 -0.494774 -0.151020 -0.283249 -0.595972 
-1.062571 -1.674293 -2.450146 -3.199975 -3.591179 -3.509341 
-3.002346 -2.288782 -1.649731 -1.456025 -1.409621 -1.458542 
-1.552501 -1.630944 -1.571950 -1.452231 -1.352396 -1.264091 
-1.196984 0.000000 0.000000 -1.009501 -1.129389 -0.796571 
-0.207160 0.413955 0.679086 0.414773 -0.110396 -0.797503 
-1.538035 -2.210501 -2.271733 -1.953397 -1.437021 -0.848743 
-0.300755 -0.005425 -0.211102 -0.615764 -1.200795 -1.950467 
-2.840962 -3.466011 -3.595508 -3.301983 -2.714178 -2.029749 
-1.491362 -1.470287 -1.532530 -1.629767 -1.710511 -1.728058 
-1.617565 -1.516650 -1.465260 -1.433795 -1.407228 0.000000 
0.000000 -0.653942 -0.691961 -0.422782 -0.038549 0.299918 
0.388882 0.161045 -0.232389 -0.730152 -1.250473 -1.701114 
-1.721178 -1.527327 -1.237163 -0.914281 -0.615638 -0.481990 
-0.705082 -1.082271 -1.603541 -2.241214 -2.933494 -3.284828 
-3.226990 -2.902221 -2.421474 -1.904983 -1.518614 -1.566830 
-1.619234 -1.641476 -1.607366 -1.505951 -1.336696 -1.236165 
-1.211225 -1.244812 -1.349544 0.000000 0.000000 -0.214300 
-0.183882 -0.014291 0.118676 0.134417 0.026938 -0.153441 
-0.392299 -0.660458 -0.910020 -1.094735 -1.111100 -1.082616 
-1.047269 -1.014527 -0.999368 -1.063727 -1.295081 -1.629297 
-2.041231 -2.471612 -2.829174 -2.895145 -2.729894 -2.456938 
-2.145895 -1.846487 -1.638566 -1.688734 -1.675102 -1.590177 
-1.440922 -1.244471 -1.047304 -0.947405 -0.926322 -0.983599 
-1.152582 0.000000 0.000000 0.314804 0.371580 0.379814 
0.229583 -0.071107 -0.365767 -0.491972 -0.560360 -0.573849 
-0.533757 -0.455067 -0.495698 -0.635819 -0.846320 -1.105695 
-1.404501 -1.720496 -1.971800 -2.236350 -2.468189 -2.594605 
-2.547597 -2.384327 -2.191811 -2.016539 -1.892604 -1.823567 
-1.808123 -1.815670 -1.697571 -1.487915 -1.229499 -0.957153 
-0.754312 -0.664300 -0.652259 -0.738374 -0.965968 0.000000 
0.000000 0.904375 0.946545 0.730545 0.282847 -0.301373 
-0.753868 -0.816751 -0.704594 -0.459906 -0.143537 0.165119 
0.086809 -0.207119 -0.638716 -1.176823 -1.805989 -2.420606 
-2.706750 -2.856986 -2.825577 -2.581660 -2.140879 -1.839934 
-1.686529 -1.630875 -1.684622 -1.827754 -1.992791 -1.928625 
-1.687266 -1.349065 -0.988954 -0.651660 -0.459589 -0.397199 
-0.415567 -0.554745 -0.854649 0.000000 0.000000 1.484624 
1.507903 1.033964 0.289702 -0.540176 -1.106456 -1.089633 
-0.793645 -0.311648 0.238485 0.722974 0.609171 0.181241 
-0.450828 -1.254002 -2.210387 -3.128375 -3.440483 -3.417501 
-3.064129 -2.451893 -1.700226 -1.349282 -1.275893 -1.344575 
-1.551989 -1.865149 -2.165494 -2.007019 -1.642763 -1.187078 
-0.734456 -0.335628 -0.167264 -0.156680 -0.231658 -0.448807 
-0.843591 0.000000 0.000000 1.574480 1.423702 0.839222 
0.060037 -0.754013 -1.267363 -1.192436 -0.868154 -0.389665 
0.137999 0.603044 0.462071 0.024635 -0.616221 -1.447808 
-2.461074 -3.416476 -3.630231 -3.437027 -2.902623 -2.161803 
-1.362742 -1.119976 -1.200078 -1.409996 -1.735126 -2.136065 
-2.465602 -2.174135 -1.703976 -1.178106 -0.686178 -0.276802 
-0.197591 -0.308889 -0.460595 -0.683495 -0.989725 0.000000 
0.000000 1.237960 0.908209 0.383191 -0.253611 -0.911949 
-1.295621 -1.195824 -0.935159 -0.584468 -0.209508 0.125970 
-0.038588 -0.431606 -0.986548 -1.699024 -2.553916 -3.307298 
-3.358803 -3.085249 -2.559551 -1.893164 -1.201354 -1.101110 
-1.320533 -1.642095 -2.039637 -2.462077 -2.740422 -2.314084 
-1.772355 -1.224830 -0.740178 -0.358055 -0.395064 -0.652989 
-0.880587 -1.066186 -1.195954 0.000000 0.000000 0.732542 
0.298724 -0.105390 -0.550787 -1.014917 -1.260539 -1.168855 
-1.005474 -0.810872 -0.612822 -0.433774 -0.613949 -0.946901 
-1.383460 -1.911560 -2.503452 -2.957631 -2.874982 -2.611780 
-2.204304 -1.704353 -1.179856 -1.207939 -1.533153 -1.932754 
-2.362042 -2.751827 -2.924368 -2.389885 -1.814576 -1.279210 
-0.826950 -0.487239 -0.625328 -1.008706 -1.294261 -1.424344 
-1.360528 0.000000 0.000000 0.200368 -0.283616 -0.569460 
-0.815618 -1.066475 -1.185363 -1.138043 -1.098294 -1.072055 
-1.052764 -1.030393 -1.210582 -1.456069 -1.731525 -2.019678 
-2.298120 -2.451735 -2.299912 -2.108499 -1.868540 -1.577169 
-1.259677 -1.410842 -1.819459 -2.268722 -2.688448 -2.993413 
-3.025264 -2.429862 -1.859084 -1.360472 -0.956953 -0.671090 
-0.876846 -1.332206 -1.636097 -1.690874 -1.436394 0.000000 
0.000000 -0.249906 -0.749330 -0.950877 -1.028292 -1.077261 
-1.095272 -1.120631 -1.218972 -1.358355 -1.500907 -1.610977 
-1.764598 -1.887059 -1.964998 -1.993938 -1.978720 -1.900285 
-1.741842 -1.644333 -1.572697 -1.495450 -1.411100 -1.688200 
-2.162395 -2.629845 -2.993554 -3.167781 -3.051709 -2.462530 
-1.933063 -1.487265 -1.141411 -0.918718 -1.142907 -1.580311 
-1.836239 -1.803648 -1.415628 0.000000 0.000000 -0.507874 
-0.967359 -1.116998 -1.098575 -1.014816 -0.974821 -1.073589 
-1.288445 -1.551482 -1.799145 -1.980616 -2.077180 -2.068298 
-1.972637 -1.810160 -1.611775 -1.422858 -1.314322 -1.314988 
-1.389340 -1.505577 -1.656665 -2.040838 -2.526391 -2.936279 
-3.165298 -3.163472 -2.926551 -2.444840 -2.012846 -1.646487 
-1.369067 -1.209584 -1.361065 -1.622791 -1.720745 -1.607980 
-1.255898 0.000000 0.000000 -0.391864 -0.676826 -0.775469 
-0.759573 -0.681692 -0.638913 -0.726597 -0.911802 -1.137144 
-1.351587 -1.520705 -1.598526 -1.587028 -1.511194 -1.390679 
-1.250434 -1.149190 -1.190727 -1.336774 -1.562878 -1.845500 
-2.174940 -2.523746 -2.783320 -2.870375 -2.752510 -2.479904 
-2.168394 -1.962118 -1.795387 -1.644111 -1.505811 -1.387805 
-1.274611 -1.101514 -0.885854 -0.708290 -0.648559 0.000000 
0.000000 -0.233332 -0.426647 -0.487529 -0.466162 -0.399603 
-0.349815 -0.392737 -0.521672 -0.698079 -0.881514 -1.041273 
-1.131415 -1.150612 -1.122956 -1.067052 -1.002710 -0.988694 
-1.141480 -1.402455 -1.759495 -2.197274 -2.699364 -2.997299 
-2.984659 -2.711367 -2.250668 -1.739198 -1.370810 -1.433544 
-1.538343 -1.621926 -1.643914 -1.579409 -1.209261 -0.640128 
-0.144863 0.143326 0.085977 0.000000 0.000000 -0.044063 
-0.171480 -0.205378 -0.189606 -0.158407 -0.119364 -0.107896 
-0.164628 -0.275606 -0.413512 -0.546195 -0.658208 -0.726472 
-0.768580 -0.801209 -0.838229 -0.922269 -1.160590 -1.515158 
-1.978504 -2.532822 -3.142249 -3.353994 -3.081741 -2.512074 
-1.802135 -1.124161 -0.698936 -0.928805 -1.237643 -1.525280 
-1.702418 -1.694586 -1.128612 -0.249506 0.486697 0.915203 
0.856757 0.000000 0.000000 0.156450 0.117459 0.103995 
0.089272 0.049897 0.047586 0.103391 0.123981 0.099316 
0.038383 -0.029953 -0.157005 -0.283647 -0.414626 -0.562694 
-0.734814 -0.941786 -1.255092 -1.690824 -2.227227 -2.819820 
-3.395712 -3.466931 -3.017691 -2.306734 -1.509470 -0.781523 
-0.319531 -0.542523 -0.910317 -1.302565 -1.588701 -1.635594 
-1.000715 0.068044 1.008702 1.578043 1.537577 0.000000 
0.000000 0.342860 0.466683 0.471585 0.384543 0.231315 
0.154762 0.233129 0.324943 0.404664 0.461761 0.510246 
0.390203 0.205164 -0.029956 -0.321818 -0.672696 -1.050068 
-1.447610 -1.957313 -2.509663 -3.003363 -3.331835 -3.219506 
-2.744282 -2.105286 -1.424603 -0.808920 -0.379647 -0.382750 
-0.599735 -0.922455 -1.211432 -1.284945 -0.771323 0.321226 
1.433448 2.121729 2.026391 0.000000 0.000000 0.201399 
0.317976 0.242867 0.051697 -0.180819 -0.279016 -0.143206 
0.053223 0.282346 0.514116 0.718702 0.575044 0.246768 
-0.200845 -0.737955 -1.335078 -1.865224 -2.143541 -2.388745 
-2.527011 -2.492307 -2.277323 -2.129421 -2.069464 -2.020176 
-1.935941 -1.791673 -1.532515 -0.985201 -0.613910 -0.412600 
-0.350310 -0.327770 -0.477089 -0.337457 0.134137 0.483181 
0.434062 0.000000 0.000000 -0.246269 -0.432928 -0.640173 
-0.822708 -0.980222 -0.987321 -0.741585 -0.419178 -0.048379 
0.319012 0.598567 0.347659 -0.190979 -0.893907 -1.691413 
-2.516672 -3.112235 -3.013327 -2.626336 -2.029204 -1.338440 
-0.693714 -0.821588 -1.409786 -2.114208 -2.774827 -3.227014 
-3.168542 -1.944971 -0.864859 0.026631 0.693787 1.114601 
0.150330 -1.664405 -2.898314 -3.320837 -2.902615 0.000000 
0.000000 -0.706528 -1.155855 -1.476913 -1.661449 -1.757317 
-1.666958 -1.297300 -0.839792 -0.349746 0.088577 0.359236 
0.030861 -0.623439 -1.452397 -2.364423 -3.277042 -3.870782 
-3.471169 -2.578343 -1.421572 -0.284139 0.565105 0.102232 
-0.998440 -2.261919 -3.515424 -4.496171 -4.610244 -2.817454 
-1.157285 0.306991 1.542671 2.427781 0.849744 -2.810063 
-5.858906 -6.829624 -5.147130 0.000000 0.000000 -1.041547 
-1.552475 -1.968382 -2.292047 -2.493119 -2.398489 -1.924729 
-1.322899 -0.725213 -0.257665 -0.024497 -0.295375 -0.895719 
-1.663815 -2.472371 -3.234679 -3.738734 -3.424928 -2.574584 
-1.325937 0.030047 1.096307 0.683357 -0.611820 -2.255938 
-3.979672 -5.401426 -5.739184 -3.718620 -1.583980 0.416878 
2.078181 3.058333 0.907307 -3.649807 -7.163100 -8.021173 
-5.893947 0.000000 0.000000 -1.129871 -1.517490 -1.973850 
-2.523995 -3.034057 -3.155223 -2.719517 -2.020901 -1.324621 
-0.822482 -0.595755 -0.605387 -0.942292 -1.438550 -1.915706 
-2.288498 -2.595068 -2.803950 -2.759860 -2.309016 -1.312321 
0.078647 0.901254 0.284888 -1.478527 -3.657965 -5.497227 
-6.325747 -4.905375 -2.422051 0.305080 2.175127 2.395222 
-0.248713 -3.624833 -5.243659 -5.946825 -5.918281 0.000000 
0.000000 0.000000 0.000000 0.000000 0.000000 0.000000 
0.000000 0.000000 0.000000 0.000000 0.000000 0.000000 
0.000000 0.000000 0.000000 0.000000 0.000000 0.000000 
0.000000 0.000000 0.000000 0.000000 0.000000 0.000000 
0.000000 0.000000 0.000000 0.000000 0.000000 0.000000 
0.000000 0.000000 0.000000 0.000000 0.000000 0.000000 
0.000000 0.000000 0.000000 0.000000 
